<?xml version="1.0" encoding="UTF-8"?>

<!-- generated on 2024-03-06 20:37:40 by Eclipse SUMO GUI Version 1.19.0
<configuration xmlns:xsi="http://www.w3.org/2001/XMLSchema-instance" xsi:noNamespaceSchemaLocation="http://sumo.dlr.de/xsd/sumoConfiguration.xsd">

    <input>
        <net-file value="cenary.net.xml"/>
        <route-files value="cenary.car.rou.xml,cenary.emergency.rou.xml"/>
    </input>

    <output>
        <tripinfo-output value="tripinfo.xml"/>
    </output>

    <time>
        <begin value="0"/>
    </time>

    <report>
        <verbose value="true"/>
        <no-step-log value="true"/>
    </report>

    <traci_server>
        <remote-port value="53175"/>
    </traci_server>

</configuration>
-->

<tripinfos xmlns:xsi="http://www.w3.org/2001/XMLSchema-instance" xsi:noNamespaceSchemaLocation="http://sumo.dlr.de/xsd/tripinfo_file.xsd">
    <tripinfo id="car13" depart="26.00" departLane="A1B1_0" departPos="5.10" departSpeed="0.00" departDelay="0.00" arrival="38.00" arrivalLane="A1B1_0" arrivalPos="135.60" arrivalSpeed="15.29" duration="12.00" routeLength="130.50" waitingTime="0.00" waitingCount="0" stopTime="0.00" timeLoss="3.18" rerouteNo="0" devices="tripinfo_car13" vType="DEFAULT_VEHTYPE" speedFactor="1.12" vaporized=""/>
    <tripinfo id="car14" depart="28.00" departLane="D1C1_0" departPos="5.10" departSpeed="0.00" departDelay="0.00" arrival="59.00" arrivalLane="C1C0_0" arrivalPos="135.60" arrivalSpeed="13.02" duration="31.00" routeLength="280.30" waitingTime="1.00" waitingCount="1" stopTime="0.00" timeLoss="9.43" rerouteNo="0" devices="tripinfo_car14" vType="DEFAULT_VEHTYPE" speedFactor="0.99" vaporized=""/>
    <tripinfo id="car23" depart="49.00" departLane="A1B1_0" departPos="5.10" departSpeed="0.00" departDelay="3.00" arrival="80.00" arrivalLane="B1A1_0" arrivalPos="135.60" arrivalSpeed="11.32" duration="31.00" routeLength="270.77" waitingTime="0.00" waitingCount="0" stopTime="0.00" timeLoss="6.98" rerouteNo="0" devices="tripinfo_car23" vType="DEFAULT_VEHTYPE" speedFactor="0.89" vaporized=""/>
    <tripinfo id="car3" depart="6.00" departLane="D1D2_0" departPos="5.10" departSpeed="0.00" departDelay="0.00" arrival="86.00" arrivalLane="A1B1_0" arrivalPos="135.60" arrivalSpeed="13.84" duration="80.00" routeLength="855.67" waitingTime="0.00" waitingCount="0" stopTime="0.00" timeLoss="20.89" rerouteNo="0" devices="tripinfo_car3" vType="DEFAULT_VEHTYPE" speedFactor="1.08" vaporized=""/>
    <tripinfo id="car29" depart="62.00" departLane="A2B2_0" departPos="5.10" departSpeed="0.00" departDelay="4.00" arrival="89.00" arrivalLane="B2B1_0" arrivalPos="135.60" arrivalSpeed="11.91" duration="27.00" routeLength="275.13" waitingTime="0.00" waitingCount="0" stopTime="0.00" timeLoss="5.22" rerouteNo="0" devices="tripinfo_car29" vType="DEFAULT_VEHTYPE" speedFactor="0.93" vaporized=""/>
    <tripinfo id="car11" depart="22.00" departLane="B1C1_0" departPos="5.10" departSpeed="0.00" departDelay="0.00" arrival="96.00" arrivalLane="A2B2_0" arrivalPos="135.60" arrivalSpeed="13.74" duration="74.00" routeLength="710.03" waitingTime="7.00" waitingCount="1" stopTime="0.00" timeLoss="21.53" rerouteNo="0" devices="tripinfo_car11" vType="DEFAULT_VEHTYPE" speedFactor="1.03" vaporized=""/>
    <tripinfo id="car37" depart="74.00" departLane="C2B2_0" departPos="5.10" departSpeed="0.00" departDelay="0.00" arrival="99.00" arrivalLane="B2B1_0" arrivalPos="135.60" arrivalSpeed="15.46" duration="25.00" routeLength="280.30" waitingTime="0.00" waitingCount="0" stopTime="0.00" timeLoss="6.70" rerouteNo="0" devices="tripinfo_car37" vType="DEFAULT_VEHTYPE" speedFactor="1.18" vaporized=""/>
    <tripinfo id="car1" depart="2.00" departLane="B1A1_0" departPos="5.10" departSpeed="0.00" departDelay="0.00" arrival="100.00" arrivalLane="B0A0_0" arrivalPos="139.60" arrivalSpeed="12.66" duration="98.00" routeLength="564.03" waitingTime="36.00" waitingCount="2" stopTime="0.00" timeLoss="52.37" rerouteNo="0" devices="tripinfo_car1" vType="DEFAULT_VEHTYPE" speedFactor="0.94" vaporized=""/>
    <tripinfo id="car2" depart="4.00" departLane="C3B3_0" departPos="5.10" departSpeed="0.00" departDelay="0.00" arrival="104.00" arrivalLane="C2C1_0" arrivalPos="135.60" arrivalSpeed="13.07" duration="100.00" routeLength="565.40" waitingTime="42.00" waitingCount="1" stopTime="0.00" timeLoss="58.23" rerouteNo="0" devices="tripinfo_car2" vType="DEFAULT_VEHTYPE" speedFactor="1.01" vaporized=""/>
    <tripinfo id="car10" depart="21.00" departLane="D0C0_0" departPos="5.10" departSpeed="0.00" departDelay="1.00" arrival="105.00" arrivalLane="C2C3_0" arrivalPos="135.60" arrivalSpeed="14.36" duration="84.00" routeLength="579.13" waitingTime="21.00" waitingCount="2" stopTime="0.00" timeLoss="45.21" rerouteNo="0" devices="tripinfo_car10" vType="DEFAULT_VEHTYPE" speedFactor="1.09" vaporized=""/>
    <tripinfo id="car0" depart="0.00" departLane="C1D1_0" departPos="5.10" departSpeed="0.00" departDelay="0.00" arrival="107.00" arrivalLane="A0B0_0" arrivalPos="139.60" arrivalSpeed="14.32" duration="107.00" routeLength="871.90" waitingTime="29.00" waitingCount="1" stopTime="0.00" timeLoss="45.27" rerouteNo="0" devices="tripinfo_car0" vType="DEFAULT_VEHTYPE" speedFactor="1.06" vaporized=""/>
    <tripinfo id="emergency0" depart="3.00" departLane="C1D1_0" departPos="6.60" departSpeed="0.00" departDelay="3.00" arrival="112.00" arrivalLane="A0B0_0" arrivalPos="139.60" arrivalSpeed="13.52" duration="109.00" routeLength="870.40" waitingTime="27.00" waitingCount="1" stopTime="0.00" timeLoss="43.75" rerouteNo="0" devices="tripinfo_emergency0" vType="emergency_emergency" speedFactor="1.00" vaporized=""/>
    <tripinfo id="car27" depart="54.00" departLane="C2B2_0" departPos="5.10" departSpeed="0.00" departDelay="0.00" arrival="112.00" arrivalLane="C1C2_0" arrivalPos="135.60" arrivalSpeed="12.22" duration="58.00" routeLength="555.67" waitingTime="0.00" waitingCount="0" stopTime="0.00" timeLoss="13.37" rerouteNo="0" devices="tripinfo_car27" vType="DEFAULT_VEHTYPE" speedFactor="0.95" vaporized=""/>
    <tripinfo id="car9" depart="18.00" departLane="D0C0_0" departPos="5.10" departSpeed="0.00" departDelay="0.00" arrival="122.00" arrivalLane="A0A1_0" arrivalPos="139.60" arrivalSpeed="10.86" duration="104.00" routeLength="580.68" waitingTime="41.00" waitingCount="1" stopTime="0.00" timeLoss="54.21" rerouteNo="0" devices="tripinfo_car9" vType="DEFAULT_VEHTYPE" speedFactor="0.86" vaporized=""/>
    <tripinfo id="car33" depart="66.00" departLane="B0A0_0" departPos="5.10" departSpeed="0.00" departDelay="0.00" arrival="124.00" arrivalLane="A0B0_0" arrivalPos="139.60" arrivalSpeed="16.16" duration="58.00" routeLength="568.29" waitingTime="1.00" waitingCount="1" stopTime="0.00" timeLoss="21.71" rerouteNo="0" devices="tripinfo_car33" vType="DEFAULT_VEHTYPE" speedFactor="1.17" vaporized=""/>
    <tripinfo id="car39" depart="78.00" departLane="B0C0_0" departPos="5.10" departSpeed="0.00" departDelay="0.00" arrival="124.00" arrivalLane="B0B1_0" arrivalPos="135.60" arrivalSpeed="12.28" duration="46.00" routeLength="415.40" waitingTime="0.00" waitingCount="0" stopTime="0.00" timeLoss="10.32" rerouteNo="0" devices="tripinfo_car39" vType="DEFAULT_VEHTYPE" speedFactor="0.90" vaporized=""/>
    <tripinfo id="car18" depart="36.00" departLane="D0D1_0" departPos="5.10" departSpeed="0.00" departDelay="0.00" arrival="129.00" arrivalLane="C1C2_0" arrivalPos="135.60" arrivalSpeed="11.92" duration="93.00" routeLength="428.93" waitingTime="45.00" waitingCount="2" stopTime="0.00" timeLoss="58.46" rerouteNo="0" devices="tripinfo_car18" vType="DEFAULT_VEHTYPE" speedFactor="0.94" vaporized=""/>
    <tripinfo id="car19" depart="38.00" departLane="D1D0_0" departPos="5.10" departSpeed="0.00" departDelay="0.00" arrival="129.00" arrivalLane="C1B1_0" arrivalPos="135.60" arrivalSpeed="5.24" duration="91.00" routeLength="571.11" waitingTime="35.00" waitingCount="1" stopTime="0.00" timeLoss="54.38" rerouteNo="0" devices="tripinfo_car19" vType="DEFAULT_VEHTYPE" speedFactor="1.16" vaporized=""/>
    <tripinfo id="car30" depart="60.00" departLane="D3D2_0" departPos="5.10" departSpeed="0.00" departDelay="0.00" arrival="136.00" arrivalLane="C1D1_0" arrivalPos="135.60" arrivalSpeed="16.27" duration="76.00" routeLength="569.40" waitingTime="15.00" waitingCount="2" stopTime="0.00" timeLoss="39.47" rerouteNo="0" devices="tripinfo_car30" vType="DEFAULT_VEHTYPE" speedFactor="1.18" vaporized=""/>
    <tripinfo id="car6" depart="12.00" departLane="A0B0_0" departPos="5.10" departSpeed="0.00" departDelay="0.00" arrival="138.00" arrivalLane="A3B3_0" arrivalPos="139.60" arrivalSpeed="13.81" duration="126.00" routeLength="867.13" waitingTime="33.00" waitingCount="2" stopTime="0.00" timeLoss="63.19" rerouteNo="0" devices="tripinfo_car6" vType="DEFAULT_VEHTYPE" speedFactor="1.05" vaporized=""/>
    <tripinfo id="car20" depart="40.00" departLane="C2C3_0" departPos="5.10" departSpeed="0.00" departDelay="0.00" arrival="140.00" arrivalLane="A1A0_0" arrivalPos="139.60" arrivalSpeed="13.82" duration="100.00" routeLength="885.63" waitingTime="20.00" waitingCount="1" stopTime="0.00" timeLoss="35.84" rerouteNo="0" devices="tripinfo_car20" vType="DEFAULT_VEHTYPE" speedFactor="1.02" vaporized=""/>
    <tripinfo id="car8" depart="16.00" departLane="B0A0_0" departPos="5.10" departSpeed="0.00" departDelay="0.00" arrival="143.00" arrivalLane="C1C0_0" arrivalPos="135.60" arrivalSpeed="7.03" duration="127.00" routeLength="715.94" waitingTime="44.00" waitingCount="2" stopTime="0.00" timeLoss="69.96" rerouteNo="0" devices="tripinfo_car8" vType="DEFAULT_VEHTYPE" speedFactor="0.94" vaporized=""/>
    <tripinfo id="car21" depart="42.00" departLane="B0A0_0" departPos="5.10" departSpeed="0.00" departDelay="0.00" arrival="147.00" arrivalLane="B1A1_0" arrivalPos="135.60" arrivalSpeed="13.06" duration="105.00" routeLength="561.58" waitingTime="39.00" waitingCount="2" stopTime="0.00" timeLoss="62.49" rerouteNo="0" devices="tripinfo_car21" vType="DEFAULT_VEHTYPE" speedFactor="1.01" vaporized=""/>
    <tripinfo id="car7" depart="14.00" departLane="C2B2_0" departPos="5.10" departSpeed="0.00" departDelay="0.00" arrival="150.00" arrivalLane="C0D0_0" arrivalPos="139.60" arrivalSpeed="11.41" duration="136.00" routeLength="719.19" waitingTime="57.00" waitingCount="2" stopTime="0.00" timeLoss="74.73" rerouteNo="0" devices="tripinfo_car7" vType="DEFAULT_VEHTYPE" speedFactor="0.89" vaporized=""/>
    <tripinfo id="car15" depart="30.00" departLane="D0C0_0" departPos="5.10" departSpeed="0.00" departDelay="0.00" arrival="150.00" arrivalLane="C3B3_0" arrivalPos="135.60" arrivalSpeed="12.22" duration="120.00" routeLength="728.92" waitingTime="35.00" waitingCount="3" stopTime="0.00" timeLoss="61.63" rerouteNo="0" devices="tripinfo_car15" vType="DEFAULT_VEHTYPE" speedFactor="0.93" vaporized=""/>
    <tripinfo id="car47" depart="94.00" departLane="A1A2_0" departPos="5.10" departSpeed="0.00" departDelay="0.00" arrival="153.00" arrivalLane="B2B1_0" arrivalPos="135.60" arrivalSpeed="11.76" duration="59.00" routeLength="419.76" waitingTime="11.00" waitingCount="1" stopTime="0.00" timeLoss="23.21" rerouteNo="0" devices="tripinfo_car47" vType="DEFAULT_VEHTYPE" speedFactor="0.90" vaporized=""/>
    <tripinfo id="car5" depart="10.00" departLane="B0A0_0" departPos="5.10" departSpeed="0.00" departDelay="0.00" arrival="156.00" arrivalLane="C0B0_0" arrivalPos="135.60" arrivalSpeed="10.35" duration="146.00" routeLength="860.57" waitingTime="44.00" waitingCount="2" stopTime="0.00" timeLoss="68.30" rerouteNo="0" devices="tripinfo_car5" vType="DEFAULT_VEHTYPE" speedFactor="0.83" vaporized=""/>
    <tripinfo id="car32" depart="64.00" departLane="D1C1_0" departPos="5.10" departSpeed="0.00" departDelay="0.00" arrival="156.00" arrivalLane="C3D3_0" arrivalPos="139.60" arrivalSpeed="13.64" duration="92.00" routeLength="573.76" waitingTime="36.00" waitingCount="1" stopTime="0.00" timeLoss="48.74" rerouteNo="0" devices="tripinfo_car32" vType="DEFAULT_VEHTYPE" speedFactor="1.01" vaporized=""/>
    <tripinfo id="car44" depart="88.00" departLane="A1B1_0" departPos="5.10" departSpeed="0.00" departDelay="0.00" arrival="156.00" arrivalLane="A1A0_0" arrivalPos="139.60" arrivalSpeed="13.99" duration="68.00" routeLength="424.56" waitingTime="22.00" waitingCount="2" stopTime="0.00" timeLoss="36.35" rerouteNo="0" devices="tripinfo_car44" vType="DEFAULT_VEHTYPE" speedFactor="1.04" vaporized=""/>
    <tripinfo id="car25" depart="50.00" departLane="B2A2_0" departPos="5.10" departSpeed="0.00" departDelay="0.00" arrival="157.00" arrivalLane="B0A0_0" arrivalPos="139.60" arrivalSpeed="11.37" duration="107.00" routeLength="714.03" waitingTime="27.00" waitingCount="1" stopTime="0.00" timeLoss="44.41" rerouteNo="0" devices="tripinfo_car25" vType="DEFAULT_VEHTYPE" speedFactor="0.87" vaporized=""/>
    <tripinfo id="car28" depart="56.00" departLane="A3A2_0" departPos="5.10" departSpeed="0.00" departDelay="0.00" arrival="158.00" arrivalLane="C2D2_0" arrivalPos="135.60" arrivalSpeed="14.70" duration="102.00" routeLength="584.30" waitingTime="47.00" waitingCount="2" stopTime="0.00" timeLoss="63.51" rerouteNo="0" devices="tripinfo_car28" vType="DEFAULT_VEHTYPE" speedFactor="1.13" vaporized=""/>
    <tripinfo id="car53" depart="111.00" departLane="A2A1_0" departPos="5.10" departSpeed="0.00" departDelay="5.00" arrival="161.00" arrivalLane="B2C2_0" arrivalPos="135.60" arrivalSpeed="11.10" duration="50.00" routeLength="565.40" waitingTime="0.00" waitingCount="0" stopTime="0.00" timeLoss="11.40" rerouteNo="0" devices="tripinfo_car53" vType="DEFAULT_VEHTYPE" speedFactor="1.10" vaporized=""/>
    <tripinfo id="car4" depart="8.00" departLane="B2C2_0" departPos="5.10" departSpeed="0.00" departDelay="0.00" arrival="165.00" arrivalLane="A0B0_0" arrivalPos="139.60" arrivalSpeed="13.24" duration="157.00" routeLength="870.89" waitingTime="69.00" waitingCount="3" stopTime="0.00" timeLoss="94.08" rerouteNo="0" devices="tripinfo_car4" vType="DEFAULT_VEHTYPE" speedFactor="1.03" vaporized=""/>
    <tripinfo id="car16" depart="33.00" departLane="C0C1_0" departPos="5.10" departSpeed="0.00" departDelay="1.00" arrival="166.00" arrivalLane="D3C3_0" arrivalPos="139.60" arrivalSpeed="11.26" duration="133.00" routeLength="726.26" waitingTime="46.00" waitingCount="3" stopTime="0.00" timeLoss="70.62" rerouteNo="0" devices="tripinfo_car16" vType="DEFAULT_VEHTYPE" speedFactor="0.88" vaporized=""/>
    <tripinfo id="car24" depart="49.00" departLane="C1D1_0" departPos="5.10" departSpeed="0.00" departDelay="1.00" arrival="170.00" arrivalLane="B2A2_0" arrivalPos="135.60" arrivalSpeed="11.22" duration="121.00" routeLength="730.09" waitingTime="36.00" waitingCount="1" stopTime="0.00" timeLoss="55.48" rerouteNo="0" devices="tripinfo_car24" vType="DEFAULT_VEHTYPE" speedFactor="0.83" vaporized=""/>
    <tripinfo id="car50" depart="100.00" departLane="A0A1_0" departPos="5.10" departSpeed="0.00" departDelay="0.00" arrival="170.00" arrivalLane="C2D2_0" arrivalPos="135.60" arrivalSpeed="11.08" duration="70.00" routeLength="729.13" waitingTime="0.00" waitingCount="0" stopTime="0.00" timeLoss="7.44" rerouteNo="0" devices="tripinfo_car50" vType="DEFAULT_VEHTYPE" speedFactor="0.85" vaporized=""/>
    <tripinfo id="car57" depart="114.00" departLane="D2C2_0" departPos="5.10" departSpeed="0.00" departDelay="0.00" arrival="173.00" arrivalLane="D1D0_0" arrivalPos="139.60" arrivalSpeed="15.42" duration="59.00" routeLength="569.40" waitingTime="6.00" waitingCount="1" stopTime="0.00" timeLoss="21.55" rerouteNo="0" devices="tripinfo_car57" vType="DEFAULT_VEHTYPE" speedFactor="1.14" vaporized=""/>
    <tripinfo id="car22" depart="44.00" departLane="A1A2_0" departPos="5.10" departSpeed="0.00" departDelay="0.00" arrival="177.00" arrivalLane="B0B1_0" arrivalPos="135.60" arrivalSpeed="7.71" duration="133.00" routeLength="710.03" waitingTime="55.00" waitingCount="2" stopTime="0.00" timeLoss="77.56" rerouteNo="0" devices="tripinfo_car22" vType="DEFAULT_VEHTYPE" speedFactor="0.97" vaporized=""/>
    <tripinfo id="car62" depart="124.00" departLane="A0A1_0" departPos="5.10" departSpeed="0.00" departDelay="0.00" arrival="183.00" arrivalLane="B1B2_0" arrivalPos="135.60" arrivalSpeed="5.59" duration="59.00" routeLength="428.93" waitingTime="13.00" waitingCount="1" stopTime="0.00" timeLoss="27.39" rerouteNo="0" devices="tripinfo_car62" vType="DEFAULT_VEHTYPE" speedFactor="1.02" vaporized=""/>
    <tripinfo id="car34" depart="69.00" departLane="B1B2_0" departPos="5.10" departSpeed="0.00" departDelay="1.00" arrival="185.00" arrivalLane="B0C0_0" arrivalPos="135.60" arrivalSpeed="7.87" duration="116.00" routeLength="570.56" waitingTime="46.00" waitingCount="3" stopTime="0.00" timeLoss="72.80" rerouteNo="0" devices="tripinfo_car34" vType="DEFAULT_VEHTYPE" speedFactor="0.99" vaporized=""/>
    <tripinfo id="car51" depart="102.00" departLane="C2C1_0" departPos="5.10" departSpeed="0.00" departDelay="0.00" arrival="187.00" arrivalLane="C0C1_0" arrivalPos="135.60" arrivalSpeed="14.97" duration="85.00" routeLength="420.77" waitingTime="42.00" waitingCount="1" stopTime="0.00" timeLoss="58.47" rerouteNo="0" devices="tripinfo_car51" vType="DEFAULT_VEHTYPE" speedFactor="1.17" vaporized=""/>
    <tripinfo id="car38" depart="76.00" departLane="D2C2_0" departPos="5.10" departSpeed="0.00" departDelay="0.00" arrival="188.00" arrivalLane="B3B2_0" arrivalPos="135.60" arrivalSpeed="8.75" duration="112.00" routeLength="565.40" waitingTime="46.00" waitingCount="3" stopTime="0.00" timeLoss="73.19" rerouteNo="0" devices="tripinfo_car38" vType="DEFAULT_VEHTYPE" speedFactor="1.10" vaporized=""/>
    <tripinfo id="car43" depart="86.00" departLane="D3D2_0" departPos="5.10" departSpeed="0.00" departDelay="0.00" arrival="194.00" arrivalLane="C0B0_0" arrivalPos="135.60" arrivalSpeed="14.37" duration="108.00" routeLength="730.68" waitingTime="35.00" waitingCount="2" stopTime="0.00" timeLoss="55.73" rerouteNo="0" devices="tripinfo_car43" vType="DEFAULT_VEHTYPE" speedFactor="1.04" vaporized=""/>
    <tripinfo id="car17" depart="34.00" departLane="B2B1_0" departPos="5.10" departSpeed="0.00" departDelay="0.00" arrival="195.00" arrivalLane="C0D0_0" arrivalPos="139.60" arrivalSpeed="12.46" duration="161.00" routeLength="584.29" waitingTime="94.00" waitingCount="3" stopTime="0.00" timeLoss="115.18" rerouteNo="0" devices="tripinfo_car17" vType="DEFAULT_VEHTYPE" speedFactor="0.94" vaporized=""/>
    <tripinfo id="car45" depart="90.00" departLane="A2A1_0" departPos="5.10" departSpeed="0.00" departDelay="0.00" arrival="195.00" arrivalLane="C1D1_0" arrivalPos="135.60" arrivalSpeed="4.70" duration="105.00" routeLength="580.30" waitingTime="39.00" waitingCount="2" stopTime="0.00" timeLoss="66.16" rerouteNo="0" devices="tripinfo_car45" vType="DEFAULT_VEHTYPE" speedFactor="1.09" vaporized=""/>
    <tripinfo id="car31" depart="64.00" departLane="C0D0_0" departPos="5.10" departSpeed="0.00" departDelay="2.00" arrival="196.00" arrivalLane="C2C1_0" arrivalPos="135.60" arrivalSpeed="15.34" duration="132.00" routeLength="716.54" waitingTime="58.00" waitingCount="3" stopTime="0.00" timeLoss="84.80" rerouteNo="0" devices="tripinfo_car31" vType="DEFAULT_VEHTYPE" speedFactor="1.15" vaporized=""/>
    <tripinfo id="car48" depart="96.00" departLane="D3D2_0" departPos="5.10" departSpeed="0.00" departDelay="0.00" arrival="197.00" arrivalLane="C0C1_0" arrivalPos="135.60" arrivalSpeed="11.67" duration="101.00" routeLength="725.31" waitingTime="22.00" waitingCount="1" stopTime="0.00" timeLoss="39.95" rerouteNo="0" devices="tripinfo_car48" vType="DEFAULT_VEHTYPE" speedFactor="0.88" vaporized=""/>
    <tripinfo id="car52" depart="104.00" departLane="B0C0_0" departPos="5.10" departSpeed="0.00" departDelay="0.00" arrival="198.00" arrivalLane="C1D1_0" arrivalPos="135.60" arrivalSpeed="7.96" duration="94.00" routeLength="424.93" waitingTime="48.00" waitingCount="2" stopTime="0.00" timeLoss="62.60" rerouteNo="0" devices="tripinfo_car52" vType="DEFAULT_VEHTYPE" speedFactor="1.02" vaporized=""/>
    <tripinfo id="car65" depart="132.00" departLane="B1B0_0" departPos="5.10" departSpeed="0.00" departDelay="2.00" arrival="198.00" arrivalLane="A1A0_0" arrivalPos="139.60" arrivalSpeed="11.22" duration="66.00" routeLength="565.58" waitingTime="0.00" waitingCount="0" stopTime="0.00" timeLoss="17.39" rerouteNo="0" devices="tripinfo_car65" vType="DEFAULT_VEHTYPE" speedFactor="0.88" vaporized=""/>
    <tripinfo id="car55" depart="112.00" departLane="D1D2_0" departPos="5.10" departSpeed="0.00" departDelay="2.00" arrival="212.00" arrivalLane="B0C0_0" arrivalPos="135.60" arrivalSpeed="13.79" duration="100.00" routeLength="857.22" waitingTime="9.00" waitingCount="1" stopTime="0.00" timeLoss="36.68" rerouteNo="0" devices="tripinfo_car55" vType="DEFAULT_VEHTYPE" speedFactor="1.00" vaporized=""/>
    <tripinfo id="car84" depart="168.00" departLane="B0A0_0" departPos="5.10" departSpeed="0.00" departDelay="0.00" arrival="214.00" arrivalLane="A2A3_0" arrivalPos="139.60" arrivalSpeed="14.65" duration="46.00" routeLength="580.68" waitingTime="0.00" waitingCount="0" stopTime="0.00" timeLoss="8.91" rerouteNo="0" devices="tripinfo_car84" vType="DEFAULT_VEHTYPE" speedFactor="1.15" vaporized=""/>
    <tripinfo id="car94" depart="188.00" departLane="A3B3_0" departPos="5.10" departSpeed="0.00" departDelay="0.00" arrival="216.00" arrivalLane="B3A3_0" arrivalPos="139.60" arrivalSpeed="14.95" duration="28.00" routeLength="278.77" waitingTime="0.00" waitingCount="0" stopTime="0.00" timeLoss="7.83" rerouteNo="0" devices="tripinfo_car94" vType="DEFAULT_VEHTYPE" speedFactor="1.09" vaporized=""/>
    <tripinfo id="car40" depart="80.00" departLane="C0D0_0" departPos="5.10" departSpeed="0.00" departDelay="0.00" arrival="219.00" arrivalLane="B0C0_0" arrivalPos="135.60" arrivalSpeed="13.89" duration="139.00" routeLength="858.56" waitingTime="52.00" waitingCount="2" stopTime="0.00" timeLoss="74.96" rerouteNo="0" devices="tripinfo_car40" vType="DEFAULT_VEHTYPE" speedFactor="1.03" vaporized=""/>
    <tripinfo id="car58" depart="116.00" departLane="B1B0_0" departPos="5.10" departSpeed="0.00" departDelay="0.00" arrival="220.00" arrivalLane="C1D1_0" arrivalPos="135.60" arrivalSpeed="13.68" duration="104.00" routeLength="565.40" waitingTime="33.00" waitingCount="3" stopTime="0.00" timeLoss="62.11" rerouteNo="0" devices="tripinfo_car58" vType="DEFAULT_VEHTYPE" speedFactor="1.02" vaporized=""/>
    <tripinfo id="car85" depart="170.00" departLane="D2D1_0" departPos="5.10" departSpeed="0.00" departDelay="0.00" arrival="222.00" arrivalLane="C1B1_0" arrivalPos="135.60" arrivalSpeed="8.11" duration="52.00" routeLength="425.13" waitingTime="7.00" waitingCount="1" stopTime="0.00" timeLoss="19.30" rerouteNo="0" devices="tripinfo_car85" vType="DEFAULT_VEHTYPE" speedFactor="0.98" vaporized=""/>
    <tripinfo id="car77" depart="154.00" departLane="A2A1_0" departPos="5.10" departSpeed="0.00" departDelay="0.00" arrival="225.00" arrivalLane="B0A0_0" arrivalPos="139.60" arrivalSpeed="12.74" duration="71.00" routeLength="576.11" waitingTime="10.00" waitingCount="2" stopTime="0.00" timeLoss="27.18" rerouteNo="0" devices="tripinfo_car77" vType="DEFAULT_VEHTYPE" speedFactor="0.98" vaporized=""/>
    <tripinfo id="car12" depart="24.00" departLane="D2D3_0" departPos="5.10" departSpeed="0.00" departDelay="0.00" arrival="230.00" arrivalLane="B1C1_0" arrivalPos="135.60" arrivalSpeed="14.36" duration="206.00" routeLength="866.54" waitingTime="113.00" waitingCount="3" stopTime="0.00" timeLoss="142.43" rerouteNo="0" devices="tripinfo_car12" vType="DEFAULT_VEHTYPE" speedFactor="1.05" vaporized=""/>
    <tripinfo id="car66" depart="132.00" departLane="D1D2_0" departPos="5.10" departSpeed="0.00" departDelay="0.00" arrival="230.00" arrivalLane="D2D3_0" arrivalPos="139.60" arrivalSpeed="12.30" duration="98.00" routeLength="284.50" waitingTime="63.00" waitingCount="2" stopTime="0.00" timeLoss="74.93" rerouteNo="0" devices="tripinfo_car66" vType="DEFAULT_VEHTYPE" speedFactor="0.91" vaporized=""/>
    <tripinfo id="car46" depart="92.00" departLane="D0C0_0" departPos="5.10" departSpeed="0.00" departDelay="0.00" arrival="232.00" arrivalLane="B2C2_0" arrivalPos="135.60" arrivalSpeed="4.18" duration="140.00" routeLength="723.76" waitingTime="62.00" waitingCount="2" stopTime="0.00" timeLoss="86.66" rerouteNo="0" devices="tripinfo_car46" vType="DEFAULT_VEHTYPE" speedFactor="1.00" vaporized=""/>
    <tripinfo id="car78" depart="156.00" departLane="B1C1_0" departPos="5.10" departSpeed="0.00" departDelay="0.00" arrival="232.00" arrivalLane="C1C0_0" arrivalPos="135.60" arrivalSpeed="7.78" duration="76.00" routeLength="275.13" waitingTime="38.00" waitingCount="2" stopTime="0.00" timeLoss="55.38" rerouteNo="0" devices="tripinfo_car78" vType="DEFAULT_VEHTYPE" speedFactor="1.01" vaporized=""/>
    <tripinfo id="car74" depart="148.00" departLane="A3B3_0" departPos="5.10" departSpeed="0.00" departDelay="0.00" arrival="233.00" arrivalLane="B1B0_0" arrivalPos="135.60" arrivalSpeed="9.04" duration="85.00" routeLength="579.13" waitingTime="20.00" waitingCount="2" stopTime="0.00" timeLoss="40.34" rerouteNo="0" devices="tripinfo_car74" vType="DEFAULT_VEHTYPE" speedFactor="0.96" vaporized=""/>
    <tripinfo id="car73" depart="146.00" departLane="C0C1_0" departPos="5.10" departSpeed="0.00" departDelay="0.00" arrival="238.00" arrivalLane="C3B3_0" arrivalPos="135.60" arrivalSpeed="13.38" duration="92.00" routeLength="580.29" waitingTime="26.00" waitingCount="2" stopTime="0.00" timeLoss="51.84" rerouteNo="0" devices="tripinfo_car73" vType="DEFAULT_VEHTYPE" speedFactor="1.06" vaporized=""/>
    <tripinfo id="car79" depart="158.00" departLane="B0B1_0" departPos="5.10" departSpeed="0.00" departDelay="0.00" arrival="238.00" arrivalLane="B0A0_0" arrivalPos="139.60" arrivalSpeed="14.46" duration="80.00" routeLength="419.40" waitingTime="30.00" waitingCount="2" stopTime="0.00" timeLoss="51.02" rerouteNo="0" devices="tripinfo_car79" vType="DEFAULT_VEHTYPE" speedFactor="1.09" vaporized=""/>
    <tripinfo id="car67" depart="134.00" departLane="A1B1_0" departPos="5.10" departSpeed="0.00" departDelay="0.00" arrival="239.00" arrivalLane="B3C3_0" arrivalPos="135.60" arrivalSpeed="12.50" duration="105.00" routeLength="574.93" waitingTime="42.00" waitingCount="2" stopTime="0.00" timeLoss="57.98" rerouteNo="0" devices="tripinfo_car67" vType="DEFAULT_VEHTYPE" speedFactor="0.91" vaporized=""/>
    <tripinfo id="car75" depart="150.00" departLane="D3D2_0" departPos="5.10" departSpeed="0.00" departDelay="0.00" arrival="239.00" arrivalLane="C2B2_0" arrivalPos="135.60" arrivalSpeed="13.50" duration="89.00" routeLength="429.13" waitingTime="40.00" waitingCount="2" stopTime="0.00" timeLoss="56.45" rerouteNo="0" devices="tripinfo_car75" vType="DEFAULT_VEHTYPE" speedFactor="0.98" vaporized=""/>
    <tripinfo id="car42" depart="84.00" departLane="B2B3_0" departPos="5.10" departSpeed="0.00" departDelay="0.00" arrival="241.00" arrivalLane="B0A0_0" arrivalPos="139.60" arrivalSpeed="14.83" duration="157.00" routeLength="719.40" waitingTime="86.00" waitingCount="3" stopTime="0.00" timeLoss="107.31" rerouteNo="0" devices="tripinfo_car42" vType="DEFAULT_VEHTYPE" speedFactor="1.09" vaporized=""/>
    <tripinfo id="car60" depart="120.00" departLane="C3C2_0" departPos="5.10" departSpeed="0.00" departDelay="0.00" arrival="242.00" arrivalLane="C0C1_0" arrivalPos="135.60" arrivalSpeed="13.77" duration="122.00" routeLength="570.77" waitingTime="63.00" waitingCount="2" stopTime="0.00" timeLoss="82.77" rerouteNo="0" devices="tripinfo_car60" vType="DEFAULT_VEHTYPE" speedFactor="1.08" vaporized=""/>
    <tripinfo id="car93" depart="186.00" departLane="D1D0_0" departPos="5.10" departSpeed="0.00" departDelay="0.00" arrival="242.00" arrivalLane="B0B1_0" arrivalPos="135.60" arrivalSpeed="11.91" duration="56.00" routeLength="571.31" waitingTime="0.00" waitingCount="0" stopTime="0.00" timeLoss="9.51" rerouteNo="0" devices="tripinfo_car93" vType="DEFAULT_VEHTYPE" speedFactor="0.92" vaporized=""/>
    <tripinfo id="emergency1" depart="153.00" departLane="B1A1_0" departPos="6.60" departSpeed="0.00" departDelay="3.00" arrival="249.00" arrivalLane="B0A0_0" arrivalPos="139.60" arrivalSpeed="12.98" duration="96.00" routeLength="562.53" waitingTime="32.00" waitingCount="1" stopTime="0.00" timeLoss="52.00" rerouteNo="0" devices="tripinfo_emergency1" vType="emergency_emergency" speedFactor="1.00" vaporized=""/>
    <tripinfo id="car26" depart="52.00" departLane="B0C0_0" departPos="5.10" departSpeed="0.00" departDelay="0.00" arrival="250.00" arrivalLane="D2D1_0" arrivalPos="135.60" arrivalSpeed="10.83" duration="198.00" routeLength="722.11" waitingTime="99.00" waitingCount="5" stopTime="0.00" timeLoss="139.30" rerouteNo="0" devices="tripinfo_car26" vType="DEFAULT_VEHTYPE" speedFactor="0.92" vaporized=""/>
    <tripinfo id="car69" depart="138.00" departLane="C3C2_0" departPos="5.10" departSpeed="0.00" departDelay="0.00" arrival="251.00" arrivalLane="A2A3_0" arrivalPos="139.60" arrivalSpeed="13.57" duration="113.00" routeLength="573.76" waitingTime="55.00" waitingCount="2" stopTime="0.00" timeLoss="71.34" rerouteNo="0" devices="tripinfo_car69" vType="DEFAULT_VEHTYPE" speedFactor="1.02" vaporized=""/>
    <tripinfo id="car83" depart="166.00" departLane="B0B1_0" departPos="5.10" departSpeed="0.00" departDelay="0.00" arrival="252.00" arrivalLane="C2C1_0" arrivalPos="135.60" arrivalSpeed="8.98" duration="86.00" routeLength="569.76" waitingTime="15.00" waitingCount="1" stopTime="0.00" timeLoss="42.56" rerouteNo="0" devices="tripinfo_car83" vType="DEFAULT_VEHTYPE" speedFactor="0.97" vaporized=""/>