<?xml version="1.0" encoding="UTF-8"?>

<!-- generated on 2024-03-03 21:56:09 by Eclipse SUMO GUI Version 1.19.0
<configuration xmlns:xsi="http://www.w3.org/2001/XMLSchema-instance" xsi:noNamespaceSchemaLocation="http://sumo.dlr.de/xsd/sumoConfiguration.xsd">

    <input>
        <net-file value="cenary.net.xml"/>
        <route-files value="cenary.car.rou.xml,cenary.emergency.rou.xml"/>
    </input>

    <output>
        <tripinfo-output value="tripinfo.xml"/>
    </output>

    <time>
        <begin value="0"/>
    </time>

    <report>
        <verbose value="true"/>
        <no-step-log value="true"/>
    </report>

    <traci_server>
        <remote-port value="56855"/>
    </traci_server>

</configuration>
-->

<tripinfos xmlns:xsi="http://www.w3.org/2001/XMLSchema-instance" xsi:noNamespaceSchemaLocation="http://sumo.dlr.de/xsd/tripinfo_file.xsd">
    <tripinfo id="car13" depart="26.00" departLane="A1B1_0" departPos="5.10" departSpeed="0.00" departDelay="0.00" arrival="38.00" arrivalLane="A1B1_0" arrivalPos="135.60" arrivalSpeed="15.00" duration="12.00" routeLength="130.50" waitingTime="0.00" waitingCount="0" stopTime="0.00" timeLoss="3.20" rerouteNo="0" devices="tripinfo_car13" vType="DEFAULT_VEHTYPE" speedFactor="1.12" vaporized=""/>
    <tripinfo id="car2" depart="4.00" departLane="C3B3_0" departPos="5.10" departSpeed="0.00" departDelay="0.00" arrival="53.00" arrivalLane="C2C1_0" arrivalPos="135.60" arrivalSpeed="14.03" duration="49.00" routeLength="565.40" waitingTime="0.00" waitingCount="0" stopTime="0.00" timeLoss="7.01" rerouteNo="0" devices="tripinfo_car2" vType="DEFAULT_VEHTYPE" speedFactor="1.01" vaporized=""/>
    <tripinfo id="car14" depart="28.00" departLane="D1C1_0" departPos="5.10" departSpeed="0.00" departDelay="0.00" arrival="58.00" arrivalLane="C1C0_0" arrivalPos="135.60" arrivalSpeed="13.77" duration="30.00" routeLength="280.30" waitingTime="3.00" waitingCount="1" stopTime="0.00" timeLoss="8.34" rerouteNo="0" devices="tripinfo_car14" vType="DEFAULT_VEHTYPE" speedFactor="0.99" vaporized=""/>
    <tripinfo id="car8" depart="16.00" departLane="B0A0_0" departPos="5.10" departSpeed="0.00" departDelay="0.00" arrival="82.00" arrivalLane="C1C0_0" arrivalPos="135.60" arrivalSpeed="12.86" duration="66.00" routeLength="715.94" waitingTime="0.00" waitingCount="0" stopTime="0.00" timeLoss="9.27" rerouteNo="0" devices="tripinfo_car8" vType="DEFAULT_VEHTYPE" speedFactor="0.94" vaporized=""/>
    <tripinfo id="car23" depart="48.00" departLane="A1B1_0" departPos="5.10" departSpeed="0.00" departDelay="2.00" arrival="85.00" arrivalLane="B1A1_0" arrivalPos="135.60" arrivalSpeed="6.55" duration="37.00" routeLength="270.77" waitingTime="3.00" waitingCount="1" stopTime="0.00" timeLoss="13.49" rerouteNo="0" devices="tripinfo_car23" vType="DEFAULT_VEHTYPE" speedFactor="0.89" vaporized=""/>
    <tripinfo id="car5" depart="10.00" departLane="B0A0_0" departPos="5.10" departSpeed="0.00" departDelay="0.00" arrival="94.00" arrivalLane="C0B0_0" arrivalPos="135.60" arrivalSpeed="11.54" duration="84.00" routeLength="860.57" waitingTime="0.00" waitingCount="0" stopTime="0.00" timeLoss="7.07" rerouteNo="0" devices="tripinfo_car5" vType="DEFAULT_VEHTYPE" speedFactor="0.83" vaporized=""/>
    <tripinfo id="car29" depart="67.00" departLane="A2B2_0" departPos="5.10" departSpeed="0.00" departDelay="9.00" arrival="96.00" arrivalLane="B2B1_0" arrivalPos="135.60" arrivalSpeed="10.53" duration="29.00" routeLength="275.13" waitingTime="0.00" waitingCount="0" stopTime="0.00" timeLoss="6.48" rerouteNo="0" devices="tripinfo_car29" vType="DEFAULT_VEHTYPE" speedFactor="0.93" vaporized=""/>
    <tripinfo id="car37" depart="74.00" departLane="C2B2_0" departPos="5.10" departSpeed="0.00" departDelay="0.00" arrival="98.00" arrivalLane="B2B1_0" arrivalPos="135.60" arrivalSpeed="15.00" duration="24.00" routeLength="280.30" waitingTime="0.00" waitingCount="0" stopTime="0.00" timeLoss="5.96" rerouteNo="0" devices="tripinfo_car37" vType="DEFAULT_VEHTYPE" speedFactor="1.18" vaporized=""/>
    <tripinfo id="emergency2" depart="20.00" departLane="C3B3_0" departPos="6.60" departSpeed="0.00" departDelay="0.00" arrival="103.00" arrivalLane="C2C1_0" arrivalPos="135.60" arrivalSpeed="13.89" duration="83.00" routeLength="563.90" waitingTime="30.00" waitingCount="1" stopTime="0.00" timeLoss="40.20" rerouteNo="0" devices="tripinfo_emergency2" vType="emergency_emergency" speedFactor="1.00" vaporized=""/>
    <tripinfo id="car11" depart="22.00" departLane="B1C1_0" departPos="5.10" departSpeed="0.00" departDelay="0.00" arrival="104.00" arrivalLane="A2B2_0" arrivalPos="135.60" arrivalSpeed="14.26" duration="82.00" routeLength="710.03" waitingTime="16.00" waitingCount="2" stopTime="0.00" timeLoss="30.35" rerouteNo="0" devices="tripinfo_car11" vType="DEFAULT_VEHTYPE" speedFactor="1.03" vaporized=""/>
    <tripinfo id="car27" depart="54.00" departLane="C2B2_0" departPos="5.10" departSpeed="0.00" departDelay="0.00" arrival="111.00" arrivalLane="C1C2_0" arrivalPos="135.60" arrivalSpeed="13.18" duration="57.00" routeLength="555.67" waitingTime="0.00" waitingCount="0" stopTime="0.00" timeLoss="11.19" rerouteNo="0" devices="tripinfo_car27" vType="DEFAULT_VEHTYPE" speedFactor="0.95" vaporized=""/>
    <tripinfo id="car9" depart="18.00" departLane="D0C0_0" departPos="5.10" departSpeed="0.00" departDelay="0.00" arrival="119.00" arrivalLane="A0A1_0" arrivalPos="139.60" arrivalSpeed="11.90" duration="101.00" routeLength="580.68" waitingTime="44.00" waitingCount="1" stopTime="0.00" timeLoss="50.90" rerouteNo="0" devices="tripinfo_car9" vType="DEFAULT_VEHTYPE" speedFactor="0.86" vaporized=""/>
    <tripinfo id="car39" depart="78.00" departLane="B0C0_0" departPos="5.10" departSpeed="0.00" departDelay="0.00" arrival="120.00" arrivalLane="B0B1_0" arrivalPos="135.60" arrivalSpeed="12.51" duration="42.00" routeLength="415.40" waitingTime="0.00" waitingCount="0" stopTime="0.00" timeLoss="6.59" rerouteNo="0" devices="tripinfo_car39" vType="DEFAULT_VEHTYPE" speedFactor="0.90" vaporized=""/>
    <tripinfo id="car33" depart="66.00" departLane="B0A0_0" departPos="5.10" departSpeed="0.00" departDelay="0.00" arrival="121.00" arrivalLane="A0B0_0" arrivalPos="139.60" arrivalSpeed="15.00" duration="55.00" routeLength="568.29" waitingTime="2.00" waitingCount="1" stopTime="0.00" timeLoss="17.86" rerouteNo="0" devices="tripinfo_car33" vType="DEFAULT_VEHTYPE" speedFactor="1.17" vaporized=""/>
    <tripinfo id="car6" depart="12.00" departLane="A0B0_0" departPos="5.10" departSpeed="0.00" departDelay="0.00" arrival="125.00" arrivalLane="A3B3_0" arrivalPos="139.60" arrivalSpeed="14.53" duration="113.00" routeLength="867.13" waitingTime="37.00" waitingCount="1" stopTime="0.00" timeLoss="51.44" rerouteNo="0" devices="tripinfo_car6" vType="DEFAULT_VEHTYPE" speedFactor="1.05" vaporized=""/>
    <tripinfo id="car20" depart="42.00" departLane="C2C3_0" departPos="5.10" departSpeed="0.00" departDelay="2.00" arrival="137.00" arrivalLane="A1A0_0" arrivalPos="139.60" arrivalSpeed="14.14" duration="95.00" routeLength="885.63" waitingTime="21.00" waitingCount="1" stopTime="0.00" timeLoss="31.01" rerouteNo="0" devices="tripinfo_car20" vType="DEFAULT_VEHTYPE" speedFactor="1.02" vaporized=""/>
    <tripinfo id="emergency9" depart="90.00" departLane="D0C0_0" departPos="6.60" departSpeed="0.00" departDelay="0.00" arrival="137.00" arrivalLane="A0A1_0" arrivalPos="139.60" arrivalSpeed="13.89" duration="47.00" routeLength="579.18" waitingTime="0.00" waitingCount="0" stopTime="0.00" timeLoss="4.41" rerouteNo="0" devices="tripinfo_emergency9" vType="emergency_emergency" speedFactor="1.00" vaporized=""/>
    <tripinfo id="car10" depart="21.00" departLane="D0C0_0" departPos="5.10" departSpeed="0.00" departDelay="1.00" arrival="138.00" arrivalLane="C2C3_0" arrivalPos="135.60" arrivalSpeed="7.80" duration="117.00" routeLength="579.13" waitingTime="64.00" waitingCount="2" stopTime="0.00" timeLoss="77.77" rerouteNo="0" devices="tripinfo_car10" vType="DEFAULT_VEHTYPE" speedFactor="1.09" vaporized=""/>
    <tripinfo id="car3" depart="6.00" departLane="D1D2_0" departPos="5.10" departSpeed="0.00" departDelay="0.00" arrival="140.00" arrivalLane="A1B1_0" arrivalPos="135.60" arrivalSpeed="8.71" duration="134.00" routeLength="855.67" waitingTime="50.00" waitingCount="3" stopTime="0.00" timeLoss="74.76" rerouteNo="0" devices="tripinfo_car3" vType="DEFAULT_VEHTYPE" speedFactor="1.08" vaporized=""/>
    <tripinfo id="car19" depart="38.00" departLane="D1D0_0" departPos="5.10" departSpeed="0.00" departDelay="0.00" arrival="140.00" arrivalLane="C1B1_0" arrivalPos="135.60" arrivalSpeed="10.40" duration="102.00" routeLength="571.11" waitingTime="48.00" waitingCount="2" stopTime="0.00" timeLoss="64.64" rerouteNo="0" devices="tripinfo_car19" vType="DEFAULT_VEHTYPE" speedFactor="1.16" vaporized=""/>
    <tripinfo id="car52" depart="104.00" departLane="B0C0_0" departPos="5.10" departSpeed="0.00" departDelay="0.00" arrival="141.00" arrivalLane="C1D1_0" arrivalPos="135.60" arrivalSpeed="14.12" duration="37.00" routeLength="424.93" waitingTime="0.00" waitingCount="0" stopTime="0.00" timeLoss="5.42" rerouteNo="0" devices="tripinfo_car52" vType="DEFAULT_VEHTYPE" speedFactor="1.02" vaporized=""/>
    <tripinfo id="car32" depart="64.00" departLane="D1C1_0" departPos="5.10" departSpeed="0.00" departDelay="0.00" arrival="148.00" arrivalLane="C3D3_0" arrivalPos="139.60" arrivalSpeed="13.96" duration="84.00" routeLength="573.76" waitingTime="32.00" waitingCount="1" stopTime="0.00" timeLoss="40.40" rerouteNo="0" devices="tripinfo_car32" vType="DEFAULT_VEHTYPE" speedFactor="1.01" vaporized=""/>
    <tripinfo id="car47" depart="94.00" departLane="A1A2_0" departPos="5.10" departSpeed="0.00" departDelay="0.00" arrival="151.00" arrivalLane="B2B1_0" arrivalPos="135.60" arrivalSpeed="12.51" duration="57.00" routeLength="419.76" waitingTime="13.00" waitingCount="1" stopTime="0.00" timeLoss="20.97" rerouteNo="0" devices="tripinfo_car47" vType="DEFAULT_VEHTYPE" speedFactor="0.90" vaporized=""/>
    <tripinfo id="car51" depart="108.00" departLane="C2C1_0" departPos="5.10" departSpeed="0.00" departDelay="6.00" arrival="151.00" arrivalLane="C0C1_0" arrivalPos="135.60" arrivalSpeed="15.00" duration="43.00" routeLength="420.77" waitingTime="6.00" waitingCount="1" stopTime="0.00" timeLoss="16.34" rerouteNo="0" devices="tripinfo_car51" vType="DEFAULT_VEHTYPE" speedFactor="1.17" vaporized=""/>
    <tripinfo id="car7" depart="14.00" departLane="C2B2_0" departPos="5.10" departSpeed="0.00" departDelay="0.00" arrival="152.00" arrivalLane="C0D0_0" arrivalPos="139.60" arrivalSpeed="12.31" duration="138.00" routeLength="719.19" waitingTime="63.00" waitingCount="3" stopTime="0.00" timeLoss="76.63" rerouteNo="0" devices="tripinfo_car7" vType="DEFAULT_VEHTYPE" speedFactor="0.89" vaporized=""/>
    <tripinfo id="car15" depart="30.00" departLane="D0C0_0" departPos="5.10" departSpeed="0.00" departDelay="0.00" arrival="152.00" arrivalLane="C3B3_0" arrivalPos="135.60" arrivalSpeed="12.87" duration="122.00" routeLength="728.92" waitingTime="49.00" waitingCount="2" stopTime="0.00" timeLoss="63.84" rerouteNo="0" devices="tripinfo_car15" vType="DEFAULT_VEHTYPE" speedFactor="0.93" vaporized=""/>
    <tripinfo id="car30" depart="60.00" departLane="D3D2_0" departPos="5.10" departSpeed="0.00" departDelay="0.00" arrival="152.00" arrivalLane="C1D1_0" arrivalPos="135.60" arrivalSpeed="15.00" duration="92.00" routeLength="569.40" waitingTime="38.00" waitingCount="2" stopTime="0.00" timeLoss="55.06" rerouteNo="0" devices="tripinfo_car30" vType="DEFAULT_VEHTYPE" speedFactor="1.18" vaporized=""/>
    <tripinfo id="car12" depart="24.00" departLane="D2D3_0" departPos="5.10" departSpeed="0.00" departDelay="0.00" arrival="154.00" arrivalLane="B1C1_0" arrivalPos="135.60" arrivalSpeed="14.54" duration="130.00" routeLength="866.54" waitingTime="51.00" waitingCount="2" stopTime="0.00" timeLoss="67.60" rerouteNo="0" devices="tripinfo_car12" vType="DEFAULT_VEHTYPE" speedFactor="1.05" vaporized=""/>
    <tripinfo id="car25" depart="50.00" departLane="B2A2_0" departPos="5.10" departSpeed="0.00" departDelay="0.00" arrival="154.00" arrivalLane="B0A0_0" arrivalPos="139.60" arrivalSpeed="12.12" duration="104.00" routeLength="714.03" waitingTime="29.00" waitingCount="1" stopTime="0.00" timeLoss="42.59" rerouteNo="0" devices="tripinfo_car25" vType="DEFAULT_VEHTYPE" speedFactor="0.87" vaporized=""/>
    <tripinfo id="car53" depart="108.00" departLane="A2A1_0" departPos="5.10" departSpeed="0.00" departDelay="2.00" arrival="155.00" arrivalLane="B2C2_0" arrivalPos="135.60" arrivalSpeed="15.00" duration="47.00" routeLength="565.40" waitingTime="0.00" waitingCount="0" stopTime="0.00" timeLoss="7.26" rerouteNo="0" devices="tripinfo_car53" vType="DEFAULT_VEHTYPE" speedFactor="1.10" vaporized=""/>
    <tripinfo id="car28" depart="56.00" departLane="A3A2_0" departPos="5.10" departSpeed="0.00" departDelay="0.00" arrival="157.00" arrivalLane="C2D2_0" arrivalPos="135.60" arrivalSpeed="15.00" duration="101.00" routeLength="584.30" waitingTime="49.00" waitingCount="3" stopTime="0.00" timeLoss="62.74" rerouteNo="0" devices="tripinfo_car28" vType="DEFAULT_VEHTYPE" speedFactor="1.13" vaporized=""/>
    <tripinfo id="car0" depart="0.00" departLane="C1D1_0" departPos="5.10" departSpeed="0.00" departDelay="0.00" arrival="159.00" arrivalLane="A0B0_0" arrivalPos="139.60" arrivalSpeed="14.72" duration="159.00" routeLength="871.90" waitingTime="80.00" waitingCount="3" stopTime="0.00" timeLoss="98.21" rerouteNo="0" devices="tripinfo_car0" vType="DEFAULT_VEHTYPE" speedFactor="1.06" vaporized=""/>
    <tripinfo id="emergency0" depart="3.00" departLane="C1D1_0" departPos="6.60" departSpeed="0.00" departDelay="3.00" arrival="163.00" arrivalLane="A0B0_0" arrivalPos="139.60" arrivalSpeed="13.89" duration="160.00" routeLength="870.40" waitingTime="74.00" waitingCount="2" stopTime="0.00" timeLoss="94.92" rerouteNo="0" devices="tripinfo_emergency0" vType="emergency_emergency" speedFactor="1.00" vaporized=""/>
    <tripinfo id="car1" depart="2.00" departLane="B1A1_0" departPos="5.10" departSpeed="0.00" departDelay="0.00" arrival="165.00" arrivalLane="B0A0_0" arrivalPos="139.60" arrivalSpeed="6.28" duration="163.00" routeLength="564.03" waitingTime="101.00" waitingCount="3" stopTime="0.00" timeLoss="116.78" rerouteNo="0" devices="tripinfo_car1" vType="DEFAULT_VEHTYPE" speedFactor="0.94" vaporized=""/>
    <tripinfo id="car44" depart="88.00" departLane="A1B1_0" departPos="5.10" departSpeed="0.00" departDelay="0.00" arrival="166.00" arrivalLane="A1A0_0" arrivalPos="139.60" arrivalSpeed="14.49" duration="78.00" routeLength="424.56" waitingTime="37.00" waitingCount="1" stopTime="0.00" timeLoss="47.31" rerouteNo="0" devices="tripinfo_car44" vType="DEFAULT_VEHTYPE" speedFactor="1.04" vaporized=""/>
    <tripinfo id="car50" depart="100.00" departLane="A0A1_0" departPos="5.10" departSpeed="0.00" departDelay="0.00" arrival="166.00" arrivalLane="C2D2_0" arrivalPos="135.60" arrivalSpeed="11.87" duration="66.00" routeLength="729.13" waitingTime="0.00" waitingCount="0" stopTime="0.00" timeLoss="3.08" rerouteNo="0" devices="tripinfo_car50" vType="DEFAULT_VEHTYPE" speedFactor="0.85" vaporized=""/>
    <tripinfo id="emergency13" depart="130.00" departLane="A1B1_0" departPos="6.60" departSpeed="0.00" departDelay="0.00" arrival="166.00" arrivalLane="A1B1_0" arrivalPos="135.60" arrivalSpeed="12.63" duration="36.00" routeLength="129.00" waitingTime="14.00" waitingCount="2" stopTime="0.00" timeLoss="26.03" rerouteNo="0" devices="tripinfo_emergency13" vType="emergency_emergency" speedFactor="1.00" vaporized=""/>
    <tripinfo id="emergency1" depart="10.00" departLane="B1A1_0" departPos="6.60" departSpeed="0.00" departDelay="0.00" arrival="167.00" arrivalLane="B0A0_0" arrivalPos="139.60" arrivalSpeed="9.23" duration="157.00" routeLength="562.53" waitingTime="96.00" waitingCount="3" stopTime="0.00" timeLoss="114.46" rerouteNo="0" devices="tripinfo_emergency1" vType="emergency_emergency" speedFactor="1.00" vaporized=""/>
    <tripinfo id="car24" depart="48.00" departLane="C1D1_0" departPos="5.10" departSpeed="0.00" departDelay="0.00" arrival="167.00" arrivalLane="B2A2_0" arrivalPos="135.60" arrivalSpeed="11.47" duration="119.00" routeLength="730.09" waitingTime="42.00" waitingCount="3" stopTime="0.00" timeLoss="52.75" rerouteNo="0" devices="tripinfo_car24" vType="DEFAULT_VEHTYPE" speedFactor="0.83" vaporized=""/>
    <tripinfo id="emergency14" depart="141.00" departLane="D1C1_0" departPos="6.60" departSpeed="0.00" departDelay="1.00" arrival="167.00" arrivalLane="C1C0_0" arrivalPos="135.60" arrivalSpeed="13.89" duration="26.00" routeLength="278.80" waitingTime="0.00" waitingCount="0" stopTime="0.00" timeLoss="4.94" rerouteNo="0" devices="tripinfo_emergency14" vType="emergency_emergency" speedFactor="1.00" vaporized=""/>
    <tripinfo id="car21" depart="42.00" departLane="B0A0_0" departPos="5.10" departSpeed="0.00" departDelay="0.00" arrival="168.00" arrivalLane="B1A1_0" arrivalPos="135.60" arrivalSpeed="12.78" duration="126.00" routeLength="561.58" waitingTime="65.00" waitingCount="3" stopTime="0.00" timeLoss="83.37" rerouteNo="0" devices="tripinfo_car21" vType="DEFAULT_VEHTYPE" speedFactor="1.01" vaporized=""/>
    <tripinfo id="car59" depart="120.00" departLane="C1C2_0" departPos="5.10" departSpeed="0.00" departDelay="2.00" arrival="169.00" arrivalLane="A2B2_0" arrivalPos="135.60" arrivalSpeed="13.47" duration="49.00" routeLength="570.57" waitingTime="0.00" waitingCount="0" stopTime="0.00" timeLoss="5.47" rerouteNo="0" devices="tripinfo_car59" vType="DEFAULT_VEHTYPE" speedFactor="0.97" vaporized=""/>
    <tripinfo id="car4" depart="8.00" departLane="B2C2_0" departPos="5.10" departSpeed="0.00" departDelay="0.00" arrival="172.00" arrivalLane="A0B0_0" arrivalPos="139.60" arrivalSpeed="14.31" duration="164.00" routeLength="870.89" waitingTime="85.00" waitingCount="3" stopTime="0.00" timeLoss="100.09" rerouteNo="0" devices="tripinfo_car4" vType="DEFAULT_VEHTYPE" speedFactor="1.03" vaporized=""/>
    <tripinfo id="emergency4" depart="40.00" departLane="B2C2_0" departPos="6.60" departSpeed="0.00" departDelay="0.00" arrival="175.00" arrivalLane="A0B0_0" arrivalPos="139.60" arrivalSpeed="13.89" duration="135.00" routeLength="869.39" waitingTime="55.00" waitingCount="2" stopTime="0.00" timeLoss="69.66" rerouteNo="0" devices="tripinfo_emergency4" vType="emergency_emergency" speedFactor="1.00" vaporized=""/>
    <tripinfo id="emergency3" depart="32.00" departLane="D1D2_0" departPos="6.60" departSpeed="0.00" departDelay="2.00" arrival="178.00" arrivalLane="A1B1_0" arrivalPos="135.60" arrivalSpeed="13.89" duration="146.00" routeLength="854.17" waitingTime="65.00" waitingCount="2" stopTime="0.00" timeLoss="81.02" rerouteNo="0" devices="tripinfo_emergency3" vType="emergency_emergency" speedFactor="1.00" vaporized=""/>
    <tripinfo id="car78" depart="156.00" departLane="B1C1_0" departPos="5.10" departSpeed="0.00" departDelay="0.00" arrival="181.00" arrivalLane="C1C0_0" arrivalPos="135.60" arrivalSpeed="13.99" duration="25.00" routeLength="275.13" waitingTime="0.00" waitingCount="0" stopTime="0.00" timeLoss="4.06" rerouteNo="0" devices="tripinfo_car78" vType="DEFAULT_VEHTYPE" speedFactor="1.01" vaporized=""/>
    <tripinfo id="car16" depart="37.00" departLane="C0C1_0" departPos="5.10" departSpeed="0.00" departDelay="5.00" arrival="183.00" arrivalLane="D3C3_0" arrivalPos="139.60" arrivalSpeed="7.80" duration="146.00" routeLength="726.26" waitingTime="69.00" waitingCount="3" stopTime="0.00" timeLoss="83.47" rerouteNo="0" devices="tripinfo_car16" vType="DEFAULT_VEHTYPE" speedFactor="0.88" vaporized=""/>
    <tripinfo id="car18" depart="36.00" departLane="D0D1_0" departPos="5.10" departSpeed="0.00" departDelay="0.00" arrival="183.00" arrivalLane="C1C2_0" arrivalPos="135.60" arrivalSpeed="7.80" duration="147.00" routeLength="428.93" waitingTime="100.00" waitingCount="3" stopTime="0.00" timeLoss="112.46" rerouteNo="0" devices="tripinfo_car18" vType="DEFAULT_VEHTYPE" speedFactor="0.94" vaporized=""/>
    <tripinfo id="car22" depart="44.00" departLane="A1A2_0" departPos="5.10" departSpeed="0.00" departDelay="0.00" arrival="183.00" arrivalLane="B0B1_0" arrivalPos="135.60" arrivalSpeed="7.80" duration="139.00" routeLength="710.03" waitingTime="66.00" waitingCount="3" stopTime="0.00" timeLoss="84.25" rerouteNo="0" devices="tripinfo_car22" vType="DEFAULT_VEHTYPE" speedFactor="0.97" vaporized=""/>
    <tripinfo id="car26" depart="52.00" departLane="B0C0_0" departPos="5.10" departSpeed="0.00" departDelay="0.00" arrival="183.00" arrivalLane="D2D1_0" arrivalPos="135.60" arrivalSpeed="7.80" duration="131.00" routeLength="722.11" waitingTime="59.00" waitingCount="2" stopTime="0.00" timeLoss="71.90" rerouteNo="0" devices="tripinfo_car26" vType="DEFAULT_VEHTYPE" speedFactor="0.92" vaporized=""/>
    <tripinfo id="car36" depart="72.00" departLane="D1D2_0" departPos="5.10" departSpeed="0.00" departDelay="0.00" arrival="183.00" arrivalLane="B1B2_0" arrivalPos="135.60" arrivalSpeed="7.80" duration="111.00" routeLength="710.03" waitingTime="39.00" waitingCount="3" stopTime="0.00" timeLoss="55.62" rerouteNo="0" devices="tripinfo_car36" vType="DEFAULT_VEHTYPE" speedFactor="0.97" vaporized=""/>
    <tripinfo id="car34" depart="68.00" departLane="B1B2_0" departPos="5.10" departSpeed="0.00" departDelay="0.00" arrival="185.00" arrivalLane="B0C0_0" arrivalPos="135.60" arrivalSpeed="10.40" duration="117.00" routeLength="570.56" waitingTime="54.00" waitingCount="3" stopTime="0.00" timeLoss="73.57" rerouteNo="0" devices="tripinfo_car34" vType="DEFAULT_VEHTYPE" speedFactor="0.99" vaporized=""/>
    <tripinfo id="car38" depart="76.00" departLane="D2C2_0" departPos="5.10" departSpeed="0.00" departDelay="0.00" arrival="186.00" arrivalLane="B3B2_0" arrivalPos="135.60" arrivalSpeed="10.40" duration="110.00" routeLength="565.40" waitingTime="55.00" waitingCount="3" stopTime="0.00" timeLoss="71.54" rerouteNo="0" devices="tripinfo_car38" vType="DEFAULT_VEHTYPE" speedFactor="1.10" vaporized=""/>
    <tripinfo id="car40" depart="80.00" departLane="C0D0_0" departPos="5.10" departSpeed="0.00" departDelay="0.00" arrival="192.00" arrivalLane="B0C0_0" arrivalPos="135.60" arrivalSpeed="14.31" duration="112.00" routeLength="858.56" waitingTime="36.00" waitingCount="1" stopTime="0.00" timeLoss="49.04" rerouteNo="0" devices="tripinfo_car40" vType="DEFAULT_VEHTYPE" speedFactor="1.03" vaporized=""/>
    <tripinfo id="car43" depart="86.00" departLane="D3D2_0" departPos="5.10" departSpeed="0.00" departDelay="0.00" arrival="192.00" arrivalLane="C0B0_0" arrivalPos="135.60" arrivalSpeed="14.42" duration="106.00" routeLength="730.68" waitingTime="44.00" waitingCount="1" stopTime="0.00" timeLoss="54.36" rerouteNo="0" devices="tripinfo_car43" vType="DEFAULT_VEHTYPE" speedFactor="1.04" vaporized=""/>
    <tripinfo id="car17" depart="34.00" departLane="B2B1_0" departPos="5.10" departSpeed="0.00" departDelay="0.00" arrival="193.00" arrivalLane="C0D0_0" arrivalPos="139.60" arrivalSpeed="13.08" duration="159.00" routeLength="584.29" waitingTime="100.00" waitingCount="3" stopTime="0.00" timeLoss="113.75" rerouteNo="0" devices="tripinfo_car17" vType="DEFAULT_VEHTYPE" speedFactor="0.94" vaporized=""/>
    <tripinfo id="emergency10" depart="100.00" departLane="D0C0_0" departPos="6.60" departSpeed="0.00" departDelay="0.00" arrival="193.00" arrivalLane="C2C3_0" arrivalPos="135.60" arrivalSpeed="13.89" duration="93.00" routeLength="577.63" waitingTime="43.00" waitingCount="1" stopTime="0.00" timeLoss="49.95" rerouteNo="0" devices="tripinfo_emergency10" vType="emergency_emergency" speedFactor="1.00" vaporized=""/>
    <tripinfo id="emergency11" depart="110.00" departLane="B1C1_0" departPos="6.60" departSpeed="0.00" departDelay="0.00" arrival="195.00" arrivalLane="A2B2_0" arrivalPos="135.60" arrivalSpeed="13.89" duration="85.00" routeLength="708.53" waitingTime="20.00" waitingCount="2" stopTime="0.00" timeLoss="31.48" rerouteNo="0" devices="tripinfo_emergency11" vType="emergency_emergency" speedFactor="1.00" vaporized=""/>
    <tripinfo id="car48" depart="96.00" departLane="D3D2_0" departPos="5.10" departSpeed="0.00" departDelay="0.00" arrival="196.00" arrivalLane="C0C1_0" arrivalPos="135.60" arrivalSpeed="12.18" duration="100.00" routeLength="725.31" waitingTime="30.00" waitingCount="1" stopTime="0.00" timeLoss="38.62" rerouteNo="0" devices="tripinfo_car48" vType="DEFAULT_VEHTYPE" speedFactor="0.88" vaporized=""/>
    <tripinfo id="car57" depart="114.00" departLane="D2C2_0" departPos="5.10" departSpeed="0.00" departDelay="0.00" arrival="196.00" arrivalLane="D1D0_0" arrivalPos="139.60" arrivalSpeed="10.24" duration="82.00" routeLength="569.40" waitingTime="28.00" waitingCount="2" stopTime="0.00" timeLoss="44.63" rerouteNo="0" devices="tripinfo_car57" vType="DEFAULT_VEHTYPE" speedFactor="1.14" vaporized=""/>
    <tripinfo id="car31" depart="63.00" departLane="C0D0_0" departPos="5.10" departSpeed="0.00" departDelay="1.00" arrival="197.00" arrivalLane="C2C1_0" arrivalPos="135.60" arrivalSpeed="15.00" duration="134.00" routeLength="716.54" waitingTime="63.00" waitingCount="3" stopTime="0.00" timeLoss="86.16" rerouteNo="0" devices="tripinfo_car31" vType="DEFAULT_VEHTYPE" speedFactor="1.15" vaporized=""/>
    <tripinfo id="car65" depart="130.00" departLane="B1B0_0" departPos="5.10" departSpeed="0.00" departDelay="0.00" arrival="202.00" arrivalLane="A1A0_0" arrivalPos="139.60" arrivalSpeed="12.26" duration="72.00" routeLength="565.58" waitingTime="7.00" waitingCount="1" stopTime="0.00" timeLoss="21.08" rerouteNo="0" devices="tripinfo_car65" vType="DEFAULT_VEHTYPE" speedFactor="0.88" vaporized=""/>
    <tripinfo id="car49" depart="98.00" departLane="D3C3_0" departPos="5.10" departSpeed="0.00" departDelay="0.00" arrival="207.00" arrivalLane="D1D0_0" arrivalPos="139.60" arrivalSpeed="11.81" duration="109.00" routeLength="724.95" waitingTime="36.00" waitingCount="1" stopTime="0.00" timeLoss="45.77" rerouteNo="0" devices="tripinfo_car49" vType="DEFAULT_VEHTYPE" speedFactor="0.85" vaporized=""/>
    <tripinfo id="car94" depart="188.00" departLane="A3B3_0" departPos="5.10" departSpeed="0.00" departDelay="0.00" arrival="214.00" arrivalLane="B3A3_0" arrivalPos="139.60" arrivalSpeed="15.00" duration="26.00" routeLength="278.77" waitingTime="0.00" waitingCount="0" stopTime="0.00" timeLoss="6.17" rerouteNo="0" devices="tripinfo_car94" vType="DEFAULT_VEHTYPE" speedFactor="1.09" vaporized=""/>
    <tripinfo id="car84" depart="168.00" departLane="B0A0_0" departPos="5.10" departSpeed="0.00" departDelay="0.00" arrival="215.00" arrivalLane="A2A3_0" arrivalPos="139.60" arrivalSpeed="15.00" duration="47.00" routeLength="580.68" waitingTime="0.00" waitingCount="0" stopTime="0.00" timeLoss="8.91" rerouteNo="0" devices="tripinfo_car84" vType="DEFAULT_VEHTYPE" speedFactor="1.15" vaporized=""/>
    <tripinfo id="emergency6" depart="60.00" departLane="A0B0_0" departPos="6.60" departSpeed="0.00" departDelay="0.00" arrival="216.00" arrivalLane="A3B3_0" arrivalPos="139.60" arrivalSpeed="13.89" duration="156.00" routeLength="865.63" waitingTime="78.00" waitingCount="3" stopTime="0.00" timeLoss="92.67" rerouteNo="0" devices="tripinfo_emergency6" vType="emergency_emergency" speedFactor="1.00" vaporized=""/>
    <tripinfo id="car77" depart="154.00" departLane="A2A1_0" departPos="5.10" departSpeed="0.00" departDelay="0.00" arrival="220.00" arrivalLane="B0A0_0" arrivalPos="139.60" arrivalSpeed="13.64" duration="66.00" routeLength="576.11" waitingTime="11.00" waitingCount="1" stopTime="0.00" timeLoss="21.68" rerouteNo="0" devices="tripinfo_car77" vType="DEFAULT_VEHTYPE" speedFactor="0.98" vaporized=""/>
    <tripinfo id="car71" depart="143.00" departLane="B0C0_0" departPos="5.10" departSpeed="0.00" departDelay="1.00" arrival="222.00" arrivalLane="D1D0_0" arrivalPos="139.60" arrivalSpeed="13.51" duration="79.00" routeLength="576.11" waitingTime="23.00" waitingCount="1" stopTime="0.00" timeLoss="34.40" rerouteNo="0" devices="tripinfo_car71" vType="DEFAULT_VEHTYPE" speedFactor="0.97" vaporized=""/>
    <tripinfo id="car68" depart="137.00" departLane="A1A2_0" departPos="5.10" departSpeed="0.00" departDelay="1.00" arrival="227.00" arrivalLane="C3C2_0" arrivalPos="135.60" arrivalSpeed="14.45" duration="90.00" routeLength="721.31" waitingTime="28.00" waitingCount="1" stopTime="0.00" timeLoss="39.38" rerouteNo="0" devices="tripinfo_car68" vType="DEFAULT_VEHTYPE" speedFactor="1.04" vaporized=""/>
    <tripinfo id="emergency8" depart="80.00" departLane="B0A0_0" departPos="6.60" departSpeed="0.00" departDelay="0.00" arrival="228.00" arrivalLane="C1C0_0" arrivalPos="135.60" arrivalSpeed="7.80" duration="148.00" routeLength="714.44" waitingTime="72.00" waitingCount="3" stopTime="0.00" timeLoss="94.38" rerouteNo="0" devices="tripinfo_emergency8" vType="emergency_emergency" speedFactor="1.00" vaporized=""/>
    <tripinfo id="car55" depart="110.00" departLane="D1D2_0" departPos="5.10" departSpeed="0.00" departDelay="0.00" arrival="230.00" arrivalLane="B0C0_0" arrivalPos="135.60" arrivalSpeed="13.83" duration="120.00" routeLength="857.22" waitingTime="43.00" waitingCount="1" stopTime="0.00" timeLoss="56.26" rerouteNo="0" devices="tripinfo_car55" vType="DEFAULT_VEHTYPE" speedFactor="1.00" vaporized=""/>
    <tripinfo id="car66" depart="132.00" departLane="D1D2_0" departPos="5.10" departSpeed="0.00" departDelay="0.00" arrival="230.00" arrivalLane="D2D3_0" arrivalPos="139.60" arrivalSpeed="12.60" duration="98.00" routeLength="284.50" waitingTime="66.00" waitingCount="2" stopTime="0.00" timeLoss="74.43" rerouteNo="0" devices="tripinfo_car66" vType="DEFAULT_VEHTYPE" speedFactor="0.91" vaporized=""/>