<?xml version="1.0" encoding="UTF-8"?>

<!-- generated on 2024-03-14 20:54:58 by Eclipse SUMO GUI Version 1.19.0
<configuration xmlns:xsi="http://www.w3.org/2001/XMLSchema-instance" xsi:noNamespaceSchemaLocation="http://sumo.dlr.de/xsd/sumoConfiguration.xsd">

    <input>
        <net-file value="road.net.xml"/>
        <route-files value="trips.trips.xml"/>
        <additional-files value="dump_10.add.xml"/>
    </input>

    <output>
        <summary-output value="summary_10.xml"/>
        <tripinfo-output value="tripinfo.xml"/>
        <vehroute-output value="vehroutes_10.xml"/>
        <vehroute-output.exit-times value="False"/>
        <vehroute-output.last-route value="False"/>
        <vehroute-output.sorted value="False"/>
    </output>

    <time>
        <begin value="0"/>
    </time>

    <processing>
        <route-steps value="2000"/>
        <time-to-teleport value="-1"/>
    </processing>

    <routing>
        <routing-algorithm value="astar"/>
        <device.rerouting.probability value="1"/>
        <device.rerouting.period value="25"/>
        <device.rerouting.adaptation-interval value="1"/>
        <device.rerouting.with-taz value="False"/>
    </routing>

    <report>
        <verbose value="True"/>
        <no-warnings value="True"/>
    </report>

    <traci_server>
        <remote-port value="43397"/>
    </traci_server>

</configuration>
-->

<tripinfos xmlns:xsi="http://www.w3.org/2001/XMLSchema-instance" xsi:noNamespaceSchemaLocation="http://sumo.dlr.de/xsd/tripinfo_file.xsd">
    <tripinfo id="13" depart="13.00" departLane="A1A0_0" departPos="5.10" departSpeed="0.00" departDelay="0.00" arrival="25.00" arrivalLane="A1A0_0" arrivalPos="133.20" arrivalSpeed="14.41" duration="12.00" routeLength="128.10" waitingTime="0.00" waitingCount="0" stopTime="0.00" timeLoss="3.72" rerouteNo="1" devices="vehroute_13 tripinfo_13 routing_13" vType="DEFAULT_VEHTYPE" speedFactor="1.12" vaporized=""/>
    <tripinfo id="6" depart="6.00" departLane="A0A1_0" departPos="5.10" departSpeed="0.00" departDelay="0.00" arrival="31.00" arrivalLane="A1B1_0" arrivalPos="129.20" arrivalSpeed="14.07" duration="25.00" routeLength="266.33" waitingTime="0.00" waitingCount="0" stopTime="0.00" timeLoss="5.77" rerouteNo="0" devices="vehroute_6 tripinfo_6 routing_6" vType="DEFAULT_VEHTYPE" speedFactor="1.05" vaporized=""/>
    <tripinfo id="7" depart="7.00" departLane="B2B1_0" departPos="5.10" departSpeed="0.00" departDelay="0.00" arrival="35.00" arrivalLane="B1C1_1" arrivalPos="129.20" arrivalSpeed="11.31" duration="28.00" routeLength="272.65" waitingTime="0.00" waitingCount="0" stopTime="0.00" timeLoss="4.56" rerouteNo="0" devices="vehroute_7 tripinfo_7 routing_7" vType="DEFAULT_VEHTYPE" speedFactor="0.89" vaporized=""/>
    <tripinfo id="1" depart="1.00" departLane="A2B2_0" departPos="5.10" departSpeed="0.00" departDelay="0.00" arrival="43.00" arrivalLane="A2A1_0" arrivalPos="133.20" arrivalSpeed="11.93" duration="42.00" routeLength="412.07" waitingTime="0.00" waitingCount="0" stopTime="0.00" timeLoss="8.74" rerouteNo="1" devices="vehroute_1 tripinfo_1 routing_1" vType="DEFAULT_VEHTYPE" speedFactor="0.94" vaporized=""/>
    <tripinfo id="2" depart="2.00" departLane="C0B0_0" departPos="5.10" departSpeed="0.00" departDelay="0.00" arrival="58.00" arrivalLane="B2C2_1" arrivalPos="133.20" arrivalSpeed="12.88" duration="56.00" routeLength="563.72" waitingTime="4.00" waitingCount="1" stopTime="0.00" timeLoss="14.65" rerouteNo="1" devices="vehroute_2 tripinfo_2 routing_2" vType="DEFAULT_VEHTYPE" speedFactor="1.01" vaporized=""/>
    <tripinfo id="11" depart="11.00" departLane="B0B1_0" departPos="5.10" departSpeed="0.00" departDelay="0.00" arrival="58.00" arrivalLane="A1A2_0" arrivalPos="133.20" arrivalSpeed="14.02" duration="47.00" routeLength="414.88" waitingTime="4.00" waitingCount="1" stopTime="0.00" timeLoss="15.76" rerouteNo="1" devices="vehroute_11 tripinfo_11 routing_11" vType="DEFAULT_VEHTYPE" speedFactor="1.03" vaporized=""/>
    <tripinfo id="5" depart="5.00" departLane="A2A1_0" departPos="5.10" departSpeed="0.00" departDelay="0.00" arrival="61.00" arrivalLane="B1B2_1" arrivalPos="129.20" arrivalSpeed="11.40" duration="56.00" routeLength="425.20" waitingTime="8.00" waitingCount="1" stopTime="0.00" timeLoss="16.76" rerouteNo="1" devices="vehroute_5 tripinfo_5 routing_5" vType="DEFAULT_VEHTYPE" speedFactor="0.83" vaporized=""/>
    <tripinfo id="10" depart="12.00" departLane="C1B1_0" departPos="5.10" departSpeed="0.00" departDelay="2.00" arrival="69.00" arrivalLane="B2C2_0" arrivalPos="133.20" arrivalSpeed="14.25" duration="57.00" routeLength="404.56" waitingTime="17.00" waitingCount="1" stopTime="0.00" timeLoss="29.02" rerouteNo="1" devices="vehroute_10 tripinfo_10 routing_10" vType="DEFAULT_VEHTYPE" speedFactor="1.09" vaporized=""/>
    <tripinfo id="21" depart="21.00" departLane="A2A1_0" departPos="5.10" departSpeed="0.00" departDelay="0.00" arrival="69.00" arrivalLane="A2B2_0" arrivalPos="133.20" arrivalSpeed="8.47" duration="48.00" routeLength="406.91" waitingTime="2.00" waitingCount="1" stopTime="0.00" timeLoss="17.43" rerouteNo="1" devices="vehroute_21 tripinfo_21 routing_21" vType="DEFAULT_VEHTYPE" speedFactor="1.01" vaporized=""/>
    <tripinfo id="0" depart="0.00" departLane="B2B1_0" departPos="5.10" departSpeed="0.00" departDelay="0.00" arrival="73.00" arrivalLane="A0A1_1" arrivalPos="133.20" arrivalSpeed="9.68" duration="73.00" routeLength="552.11" waitingTime="18.00" waitingCount="1" stopTime="0.00" timeLoss="34.62" rerouteNo="1" devices="vehroute_0 tripinfo_0 routing_0" vType="DEFAULT_VEHTYPE" speedFactor="1.06" vaporized=""/>
    <tripinfo id="18" depart="18.00" departLane="C1B1_0" departPos="5.10" departSpeed="0.00" departDelay="0.00" arrival="76.00" arrivalLane="B2A2_1" arrivalPos="133.20" arrivalSpeed="11.99" duration="58.00" routeLength="414.88" waitingTime="11.00" waitingCount="1" stopTime="0.00" timeLoss="24.29" rerouteNo="1" devices="vehroute_18 tripinfo_18 routing_18" vType="DEFAULT_VEHTYPE" speedFactor="0.94" vaporized=""/>
    <tripinfo id="46" depart="51.00" departLane="C1B1_0" departPos="5.10" departSpeed="0.00" departDelay="5.00" arrival="76.00" arrivalLane="B1A1_0" arrivalPos="129.20" arrivalSpeed="13.55" duration="25.00" routeLength="274.10" waitingTime="0.00" waitingCount="0" stopTime="0.00" timeLoss="4.53" rerouteNo="0" devices="vehroute_46 tripinfo_46 routing_46" vType="DEFAULT_VEHTYPE" speedFactor="1.00" vaporized=""/>
    <tripinfo id="43" depart="43.00" departLane="C2C1_0" departPos="5.10" departSpeed="0.00" departDelay="0.00" arrival="80.00" arrivalLane="B1B2_0" arrivalPos="129.20" arrivalSpeed="14.09" duration="37.00" routeLength="404.56" waitingTime="0.00" waitingCount="0" stopTime="0.00" timeLoss="7.86" rerouteNo="1" devices="vehroute_43 tripinfo_43 routing_43" vType="DEFAULT_VEHTYPE" speedFactor="1.04" vaporized=""/>
    <tripinfo id="31" depart="31.00" departLane="B1C1_0" departPos="5.10" departSpeed="0.00" departDelay="0.00" arrival="81.00" arrivalLane="B2C2_0" arrivalPos="133.20" arrivalSpeed="15.40" duration="50.00" routeLength="538.44" waitingTime="0.00" waitingCount="0" stopTime="0.00" timeLoss="13.69" rerouteNo="1" devices="vehroute_31 tripinfo_31 routing_31" vType="DEFAULT_VEHTYPE" speedFactor="1.15" vaporized=""/>
    <tripinfo id="28" depart="28.00" departLane="A1B1_0" departPos="5.10" departSpeed="0.00" departDelay="0.00" arrival="82.00" arrivalLane="C0B0_0" arrivalPos="133.20" arrivalSpeed="15.71" duration="54.00" routeLength="552.11" waitingTime="3.00" waitingCount="1" stopTime="0.00" timeLoss="17.87" rerouteNo="1" devices="vehroute_28 tripinfo_28 routing_28" vType="DEFAULT_VEHTYPE" speedFactor="1.13" vaporized=""/>
    <tripinfo id="48" depart="48.00" departLane="C2C1_0" departPos="5.10" departSpeed="0.00" departDelay="0.00" arrival="91.00" arrivalLane="B1B2_0" arrivalPos="129.20" arrivalSpeed="11.33" duration="43.00" routeLength="404.56" waitingTime="0.00" waitingCount="0" stopTime="0.00" timeLoss="8.22" rerouteNo="1" devices="vehroute_48 tripinfo_48 routing_48" vType="DEFAULT_VEHTYPE" speedFactor="0.88" vaporized=""/>
    <tripinfo id="15" depart="15.00" departLane="C1B1_0" departPos="5.10" departSpeed="0.00" departDelay="0.00" arrival="93.00" arrivalLane="C0B0_0" arrivalPos="133.20" arrivalSpeed="12.80" duration="78.00" routeLength="535.98" waitingTime="17.00" waitingCount="2" stopTime="0.00" timeLoss="33.87" rerouteNo="1" devices="vehroute_15 tripinfo_15 routing_15" vType="DEFAULT_VEHTYPE" speedFactor="0.93" vaporized=""/>
    <tripinfo id="16" depart="16.00" departLane="B1B2_0" departPos="5.10" departSpeed="0.00" departDelay="0.00" arrival="93.00" arrivalLane="C2C1_0" arrivalPos="133.20" arrivalSpeed="5.05" duration="77.00" routeLength="402.11" waitingTime="24.00" waitingCount="2" stopTime="0.00" timeLoss="42.79" rerouteNo="1" devices="vehroute_16 tripinfo_16 routing_16" vType="DEFAULT_VEHTYPE" speedFactor="0.88" vaporized=""/>
    <tripinfo id="24" depart="24.00" departLane="B2B1_0" departPos="5.10" departSpeed="0.00" departDelay="0.00" arrival="93.00" arrivalLane="B0B1_0" arrivalPos="129.20" arrivalSpeed="5.49" duration="69.00" routeLength="407.98" waitingTime="18.00" waitingCount="1" stopTime="0.00" timeLoss="32.06" rerouteNo="1" devices="vehroute_24 tripinfo_24 routing_24" vType="DEFAULT_VEHTYPE" speedFactor="0.83" vaporized=""/>
    <tripinfo id="25" depart="25.00" departLane="B0B1_0" departPos="5.10" departSpeed="0.00" departDelay="0.00" arrival="93.00" arrivalLane="A2A1_0" arrivalPos="133.20" arrivalSpeed="4.88" duration="68.00" routeLength="572.75" waitingTime="4.00" waitingCount="1" stopTime="0.00" timeLoss="18.99" rerouteNo="1" devices="vehroute_25 tripinfo_25 routing_25" vType="DEFAULT_VEHTYPE" speedFactor="0.87" vaporized=""/>
    <tripinfo id="44" depart="44.00" departLane="A1A0_0" departPos="5.10" departSpeed="0.00" departDelay="0.00" arrival="93.00" arrivalLane="A0B0_0" arrivalPos="133.20" arrivalSpeed="6.12" duration="49.00" routeLength="279.36" waitingTime="19.00" waitingCount="1" stopTime="0.00" timeLoss="28.75" rerouteNo="0" devices="vehroute_44 tripinfo_44 routing_44" vType="DEFAULT_VEHTYPE" speedFactor="1.04" vaporized=""/>
    <tripinfo id="52" depart="52.00" departLane="A2B2_0" departPos="5.10" departSpeed="0.00" departDelay="0.00" arrival="93.00" arrivalLane="B2B1_0" arrivalPos="129.20" arrivalSpeed="6.09" duration="41.00" routeLength="266.33" waitingTime="10.00" waitingCount="1" stopTime="0.00" timeLoss="21.32" rerouteNo="0" devices="vehroute_52 tripinfo_52 routing_52" vType="DEFAULT_VEHTYPE" speedFactor="1.02" vaporized=""/>
    <tripinfo id="66" depart="67.00" departLane="C1C2_0" departPos="5.10" departSpeed="0.00" departDelay="1.00" arrival="94.00" arrivalLane="C2B2_0" arrivalPos="133.20" arrivalSpeed="11.83" duration="27.00" routeLength="279.36" waitingTime="0.00" waitingCount="0" stopTime="0.00" timeLoss="4.03" rerouteNo="0" devices="vehroute_66 tripinfo_66 routing_66" vType="DEFAULT_VEHTYPE" speedFactor="0.91" vaporized=""/>
    <tripinfo id="4" depart="4.00" departLane="B1A1_0" departPos="5.10" departSpeed="0.00" departDelay="0.00" arrival="95.00" arrivalLane="A0A1_1" arrivalPos="133.20" arrivalSpeed="13.95" duration="91.00" routeLength="679.38" waitingTime="25.00" waitingCount="1" stopTime="0.00" timeLoss="41.01" rerouteNo="1" devices="vehroute_4 tripinfo_4 routing_4" vType="DEFAULT_VEHTYPE" speedFactor="1.03" vaporized=""/>
    <tripinfo id="12" depart="12.00" departLane="C2B2_0" departPos="5.10" departSpeed="0.00" departDelay="0.00" arrival="95.00" arrivalLane="B0B1_1" arrivalPos="129.20" arrivalSpeed="7.39" duration="83.00" routeLength="560.53" waitingTime="20.00" waitingCount="1" stopTime="0.00" timeLoss="43.27" rerouteNo="1" devices="vehroute_12 tripinfo_12 routing_12" vType="DEFAULT_VEHTYPE" speedFactor="1.05" vaporized=""/>
    <tripinfo id="79" depart="79.00" departLane="A2A1_0" departPos="5.10" departSpeed="0.00" departDelay="0.00" arrival="96.00" arrivalLane="A2A1_0" arrivalPos="133.20" arrivalSpeed="8.29" duration="17.00" routeLength="128.10" waitingTime="0.00" waitingCount="0" stopTime="0.00" timeLoss="8.00" rerouteNo="1" devices="vehroute_79 tripinfo_79 routing_79" vType="DEFAULT_VEHTYPE" speedFactor="1.09" vaporized=""/>
    <tripinfo id="20" depart="20.00" departLane="B2C2_0" departPos="5.10" departSpeed="0.00" departDelay="0.00" arrival="100.00" arrivalLane="A0B0_0" arrivalPos="133.20" arrivalSpeed="13.41" duration="80.00" routeLength="850.76" waitingTime="0.00" waitingCount="0" stopTime="0.00" timeLoss="17.04" rerouteNo="1" devices="vehroute_20 tripinfo_20 routing_20" vType="DEFAULT_VEHTYPE" speedFactor="1.02" vaporized=""/>
    <tripinfo id="9" depart="9.00" departLane="C1B1_0" departPos="5.10" departSpeed="0.00" departDelay="0.00" arrival="101.00" arrivalLane="A0A1_0" arrivalPos="133.20" arrivalSpeed="6.14" duration="92.00" routeLength="550.66" waitingTime="23.00" waitingCount="3" stopTime="0.00" timeLoss="43.29" rerouteNo="1" devices="vehroute_9 tripinfo_9 routing_9" vType="DEFAULT_VEHTYPE" speedFactor="0.86" vaporized=""/>
    <tripinfo id="19" depart="19.00" departLane="C1C0_0" departPos="5.10" departSpeed="0.00" departDelay="0.00" arrival="102.00" arrivalLane="B1C1_0" arrivalPos="129.20" arrivalSpeed="15.50" duration="83.00" routeLength="540.34" waitingTime="30.00" waitingCount="1" stopTime="0.00" timeLoss="47.95" rerouteNo="1" devices="vehroute_19 tripinfo_19 routing_19" vType="DEFAULT_VEHTYPE" speedFactor="1.16" vaporized=""/>
    <tripinfo id="40" depart="40.00" departLane="B1C1_0" departPos="5.10" departSpeed="0.00" departDelay="0.00" arrival="103.00" arrivalLane="A2B2_1" arrivalPos="133.20" arrivalSpeed="14.11" duration="63.00" routeLength="696.31" waitingTime="0.00" waitingCount="0" stopTime="0.00" timeLoss="12.23" rerouteNo="1" devices="vehroute_40 tripinfo_40 routing_40" vType="DEFAULT_VEHTYPE" speedFactor="1.03" vaporized=""/>
    <tripinfo id="3" depart="3.00" departLane="C1C2_0" departPos="5.10" departSpeed="0.00" departDelay="0.00" arrival="104.00" arrivalLane="A1A0_0" arrivalPos="133.20" arrivalSpeed="13.78" duration="101.00" routeLength="738.62" waitingTime="36.00" waitingCount="1" stopTime="0.00" timeLoss="50.18" rerouteNo="1" devices="vehroute_3 tripinfo_3 routing_3" vType="DEFAULT_VEHTYPE" speedFactor="1.08" vaporized=""/>
    <tripinfo id="8" depart="8.00" departLane="A2A1_0" departPos="5.10" departSpeed="0.00" departDelay="0.00" arrival="104.00" arrivalLane="B2A2_1" arrivalPos="133.20" arrivalSpeed="13.02" duration="96.00" routeLength="544.78" waitingTime="37.00" waitingCount="1" stopTime="0.00" timeLoss="51.17" rerouteNo="1" devices="vehroute_8 tripinfo_8 routing_8" vType="DEFAULT_VEHTYPE" speedFactor="0.94" vaporized=""/>
    <tripinfo id="30" depart="30.00" departLane="C2C1_0" departPos="5.10" departSpeed="0.00" departDelay="0.00" arrival="105.00" arrivalLane="B2B1_0" arrivalPos="129.20" arrivalSpeed="5.88" duration="75.00" routeLength="538.44" waitingTime="15.00" waitingCount="3" stopTime="0.00" timeLoss="40.19" rerouteNo="1" devices="vehroute_30 tripinfo_30 routing_30" vType="DEFAULT_VEHTYPE" speedFactor="1.18" vaporized=""/>
    <tripinfo id="49" depart="51.00" departLane="C2C1_0" departPos="5.10" departSpeed="0.00" departDelay="2.00" arrival="106.00" arrivalLane="C1C0_0" arrivalPos="133.20" arrivalSpeed="10.59" duration="55.00" routeLength="282.10" waitingTime="22.00" waitingCount="1" stopTime="0.00" timeLoss="30.79" rerouteNo="0" devices="vehroute_49 tripinfo_49 routing_49" vType="DEFAULT_VEHTYPE" speedFactor="0.85" vaporized=""/>
    <tripinfo id="47" depart="47.00" departLane="A0B0_0" departPos="5.10" departSpeed="0.00" departDelay="0.00" arrival="108.00" arrivalLane="B0C0_0" arrivalPos="133.20" arrivalSpeed="12.07" duration="61.00" routeLength="282.10" waitingTime="24.00" waitingCount="1" stopTime="0.00" timeLoss="37.62" rerouteNo="0" devices="vehroute_47 tripinfo_47 routing_47" vType="DEFAULT_VEHTYPE" speedFactor="0.90" vaporized=""/>
    <tripinfo id="70" depart="70.00" departLane="B1B0_0" departPos="5.10" departSpeed="0.00" departDelay="0.00" arrival="109.00" arrivalLane="B1C1_0" arrivalPos="129.20" arrivalSpeed="14.19" duration="39.00" routeLength="396.21" waitingTime="0.00" waitingCount="0" stopTime="0.00" timeLoss="9.23" rerouteNo="1" devices="vehroute_70 tripinfo_70 routing_70" vType="DEFAULT_VEHTYPE" speedFactor="1.02" vaporized=""/>
    <tripinfo id="32" depart="32.00" departLane="C1C0_0" departPos="5.10" departSpeed="0.00" departDelay="0.00" arrival="117.00" arrivalLane="C0C1_1" arrivalPos="133.20" arrivalSpeed="13.35" duration="85.00" routeLength="553.01" waitingTime="29.00" waitingCount="1" stopTime="0.00" timeLoss="43.00" rerouteNo="1" devices="vehroute_32 tripinfo_32 routing_32" vType="DEFAULT_VEHTYPE" speedFactor="1.01" vaporized=""/>
    <tripinfo id="34" depart="34.00" departLane="B0A0_0" departPos="5.10" departSpeed="0.00" departDelay="0.00" arrival="117.00" arrivalLane="A2B2_0" arrivalPos="133.20" arrivalSpeed="13.05" duration="83.00" routeLength="553.66" waitingTime="24.00" waitingCount="1" stopTime="0.00" timeLoss="41.56" rerouteNo="1" devices="vehroute_34 tripinfo_34 routing_34" vType="DEFAULT_VEHTYPE" speedFactor="0.99" vaporized=""/>
    <tripinfo id="26" depart="26.00" departLane="A2B2_0" departPos="5.10" departSpeed="0.00" departDelay="0.00" arrival="119.00" arrivalLane="C2B2_1" arrivalPos="133.20" arrivalSpeed="12.04" duration="93.00" routeLength="707.01" waitingTime="21.00" waitingCount="1" stopTime="0.00" timeLoss="34.30" rerouteNo="1" devices="vehroute_26 tripinfo_26 routing_26" vType="DEFAULT_VEHTYPE" speedFactor="0.92" vaporized=""/>
    <tripinfo id="59" depart="59.00" departLane="B2A2_0" departPos="5.10" departSpeed="0.00" departDelay="0.00" arrival="120.00" arrivalLane="A1A2_1" arrivalPos="133.20" arrivalSpeed="13.36" duration="61.00" routeLength="412.07" waitingTime="7.00" waitingCount="2" stopTime="0.00" timeLoss="28.48" rerouteNo="1" devices="vehroute_59 tripinfo_59 routing_59" vType="DEFAULT_VEHTYPE" speedFactor="0.97" vaporized=""/>
    <tripinfo id="39" depart="39.00" departLane="A2B2_0" departPos="5.10" departSpeed="0.00" departDelay="0.00" arrival="123.00" arrivalLane="A2A1_0" arrivalPos="133.20" arrivalSpeed="11.59" duration="84.00" routeLength="417.23" waitingTime="35.00" waitingCount="1" stopTime="0.00" timeLoss="47.81" rerouteNo="1" devices="vehroute_39 tripinfo_39 routing_39" vType="DEFAULT_VEHTYPE" speedFactor="0.90" vaporized=""/>
    <tripinfo id="68" depart="68.00" departLane="A0B0_0" departPos="5.10" departSpeed="0.00" departDelay="0.00" arrival="125.00" arrivalLane="C0C1_0" arrivalPos="133.20" arrivalSpeed="10.62" duration="57.00" routeLength="428.20" waitingTime="8.00" waitingCount="1" stopTime="0.00" timeLoss="26.04" rerouteNo="1" devices="vehroute_68 tripinfo_68 routing_68" vType="DEFAULT_VEHTYPE" speedFactor="1.04" vaporized=""/>
    <tripinfo id="99" depart="101.00" departLane="C2C1_0" departPos="5.10" departSpeed="0.00" departDelay="2.00" arrival="125.00" arrivalLane="C1C0_0" arrivalPos="133.20" arrivalSpeed="7.84" duration="24.00" routeLength="282.10" waitingTime="0.00" waitingCount="0" stopTime="0.00" timeLoss="5.35" rerouteNo="0" devices="vehroute_99 tripinfo_99 routing_99" vType="DEFAULT_VEHTYPE" speedFactor="1.10" vaporized=""/>
    <tripinfo id="71" depart="71.00" departLane="A2B2_0" departPos="5.10" departSpeed="0.00" departDelay="0.00" arrival="133.00" arrivalLane="C1C0_0" arrivalPos="133.20" arrivalSpeed="13.47" duration="62.00" routeLength="577.04" waitingTime="3.00" waitingCount="1" stopTime="0.00" timeLoss="17.97" rerouteNo="1" devices="vehroute_71 tripinfo_71 routing_71" vType="DEFAULT_VEHTYPE" speedFactor="0.97" vaporized=""/>
    <tripinfo id="84" depart="87.00" departLane="A2A1_0" departPos="5.10" departSpeed="0.00" departDelay="3.00" arrival="133.00" arrivalLane="A1A2_1" arrivalPos="133.20" arrivalSpeed="14.89" duration="46.00" routeLength="265.97" waitingTime="1.00" waitingCount="1" stopTime="0.00" timeLoss="28.28" rerouteNo="0" devices="vehroute_84 tripinfo_84 routing_84" vType="DEFAULT_VEHTYPE" speedFactor="1.15" vaporized=""/>
    <tripinfo id="119" depart="120.00" departLane="B2A2_0" departPos="5.10" departSpeed="0.00" departDelay="1.00" arrival="134.00" arrivalLane="B2A2_0" arrivalPos="133.20" arrivalSpeed="14.41" duration="14.00" routeLength="128.10" waitingTime="0.00" waitingCount="0" stopTime="0.00" timeLoss="4.44" rerouteNo="1" devices="vehroute_119 tripinfo_119 routing_119" vType="DEFAULT_VEHTYPE" speedFactor="1.07" vaporized=""/>
    <tripinfo id="73" depart="73.00" departLane="B1B2_0" departPos="5.10" departSpeed="0.00" departDelay="0.00" arrival="135.00" arrivalLane="C0B0_0" arrivalPos="133.20" arrivalSpeed="13.86" duration="62.00" routeLength="691.89" waitingTime="0.00" waitingCount="0" stopTime="0.00" timeLoss="13.68" rerouteNo="1" devices="vehroute_73 tripinfo_73 routing_73" vType="DEFAULT_VEHTYPE" speedFactor="1.06" vaporized=""/>
    <tripinfo id="57" depart="58.00" departLane="C1C2_0" departPos="5.10" departSpeed="0.00" departDelay="1.00" arrival="136.00" arrivalLane="C1C0_1" arrivalPos="133.20" arrivalSpeed="15.20" duration="78.00" routeLength="707.01" waitingTime="8.00" waitingCount="1" stopTime="0.00" timeLoss="31.54" rerouteNo="1" devices="vehroute_57 tripinfo_57 routing_57" vType="DEFAULT_VEHTYPE" speedFactor="1.14" vaporized=""/>
    <tripinfo id="58" depart="58.00" departLane="B0A0_0" departPos="5.10" departSpeed="0.00" departDelay="0.00" arrival="136.00" arrivalLane="B2B1_0" arrivalPos="129.20" arrivalSpeed="13.31" duration="78.00" routeLength="691.89" waitingTime="10.00" waitingCount="1" stopTime="0.00" timeLoss="28.29" rerouteNo="1" devices="vehroute_58 tripinfo_58 routing_58" vType="DEFAULT_VEHTYPE" speedFactor="1.02" vaporized=""/>
    <tripinfo id="65" depart="73.00" departLane="B0A0_0" departPos="5.10" departSpeed="0.00" departDelay="8.00" arrival="136.00" arrivalLane="A0B0_0" arrivalPos="133.20" arrivalSpeed="10.96" duration="63.00" routeLength="558.17" waitingTime="0.00" waitingCount="0" stopTime="0.00" timeLoss="14.39" rerouteNo="1" devices="vehroute_65 tripinfo_65 routing_65" vType="DEFAULT_VEHTYPE" speedFactor="0.88" vaporized=""/>
    <tripinfo id="38" depart="39.00" departLane="C1C2_0" departPos="5.10" departSpeed="0.00" departDelay="1.00" arrival="138.00" arrivalLane="B1B0_0" arrivalPos="129.20" arrivalSpeed="6.14" duration="99.00" routeLength="572.75" waitingTime="37.00" waitingCount="4" stopTime="0.00" timeLoss="60.52" rerouteNo="1" devices="vehroute_38 tripinfo_38 routing_38" vType="DEFAULT_VEHTYPE" speedFactor="1.10" vaporized=""/>
    <tripinfo id="42" depart="42.00" departLane="B0C0_0" departPos="5.10" departSpeed="0.00" departDelay="0.00" arrival="139.00" arrivalLane="A2A1_1" arrivalPos="133.20" arrivalSpeed="9.27" duration="97.00" routeLength="889.88" waitingTime="20.00" waitingCount="1" stopTime="0.00" timeLoss="36.37" rerouteNo="1" devices="vehroute_42 tripinfo_42 routing_42" vType="DEFAULT_VEHTYPE" speedFactor="1.09" vaporized=""/>
    <tripinfo id="106" depart="106.00" departLane="B1A1_0" departPos="5.10" departSpeed="0.00" departDelay="0.00" arrival="139.00" arrivalLane="B1A1_0" arrivalPos="129.20" arrivalSpeed="6.62" duration="33.00" routeLength="124.10" waitingTime="15.00" waitingCount="1" stopTime="0.00" timeLoss="23.73" rerouteNo="1" devices="vehroute_106 tripinfo_106 routing_106" vType="DEFAULT_VEHTYPE" speedFactor="1.01" vaporized=""/>
    <tripinfo id="85" depart="85.00" departLane="C2B2_0" departPos="5.10" departSpeed="0.00" departDelay="0.00" arrival="141.00" arrivalLane="B1C1_1" arrivalPos="129.20" arrivalSpeed="6.32" duration="56.00" routeLength="425.20" waitingTime="1.00" waitingCount="1" stopTime="0.00" timeLoss="23.31" rerouteNo="1" devices="vehroute_85 tripinfo_85 routing_85" vType="DEFAULT_VEHTYPE" speedFactor="0.98" vaporized=""/>
    <tripinfo id="100" depart="104.00" departLane="C2C1_0" departPos="5.10" departSpeed="0.00" departDelay="4.00" arrival="142.00" arrivalLane="C2B2_1" arrivalPos="133.20" arrivalSpeed="14.73" duration="38.00" routeLength="412.07" waitingTime="0.00" waitingCount="0" stopTime="0.00" timeLoss="8.68" rerouteNo="1" devices="vehroute_100 tripinfo_100 routing_100" vType="DEFAULT_VEHTYPE" speedFactor="1.06" vaporized=""/>
    <tripinfo id="117" depart="117.00" departLane="A2A1_0" departPos="5.10" departSpeed="0.00" departDelay="0.00" arrival="142.00" arrivalLane="A1A0_0" arrivalPos="133.20" arrivalSpeed="12.83" duration="25.00" routeLength="282.10" waitingTime="0.00" waitingCount="0" stopTime="0.00" timeLoss="4.12" rerouteNo="0" devices="vehroute_117 tripinfo_117 routing_117" vType="DEFAULT_VEHTYPE" speedFactor="1.00" vaporized=""/>
    <tripinfo id="127" depart="127.00" departLane="C2C1_0" departPos="5.10" departSpeed="0.00" departDelay="0.00" arrival="142.00" arrivalLane="C2C1_0" arrivalPos="133.20" arrivalSpeed="10.42" duration="15.00" routeLength="128.10" waitingTime="0.00" waitingCount="0" stopTime="0.00" timeLoss="3.29" rerouteNo="1" devices="vehroute_127 tripinfo_127 routing_127" vType="DEFAULT_VEHTYPE" speedFactor="0.82" vaporized=""/>
    <tripinfo id="67" depart="67.00" departLane="A1A0_0" departPos="5.10" departSpeed="0.00" departDelay="0.00" arrival="143.00" arrivalLane="B1B0_0" arrivalPos="129.20" arrivalSpeed="9.85" duration="76.00" routeLength="556.62" waitingTime="2.00" waitingCount="2" stopTime="0.00" timeLoss="28.92" rerouteNo="1" devices="vehroute_67 tripinfo_67 routing_67" vType="DEFAULT_VEHTYPE" speedFactor="0.91" vaporized=""/>
    <tripinfo id="130" depart="130.00" departLane="C1C2_0" departPos="5.10" departSpeed="0.00" departDelay="0.00" arrival="143.00" arrivalLane="C1C2_0" arrivalPos="133.20" arrivalSpeed="13.75" duration="13.00" routeLength="128.10" waitingTime="0.00" waitingCount="0" stopTime="0.00" timeLoss="3.25" rerouteNo="1" devices="vehroute_130 tripinfo_130 routing_130" vType="DEFAULT_VEHTYPE" speedFactor="1.03" vaporized=""/>
    <tripinfo id="53" depart="53.00" departLane="A1A0_0" departPos="5.10" departSpeed="0.00" departDelay="0.00" arrival="144.00" arrivalLane="B1A1_0" arrivalPos="129.20" arrivalSpeed="9.37" duration="91.00" routeLength="571.30" waitingTime="22.00" waitingCount="3" stopTime="0.00" timeLoss="51.05" rerouteNo="1" devices="vehroute_53 tripinfo_53 routing_53" vType="DEFAULT_VEHTYPE" speedFactor="1.10" vaporized=""/>
    <tripinfo id="72" depart="72.00" departLane="B1A1_0" departPos="5.10" departSpeed="0.00" departDelay="0.00" arrival="144.00" arrivalLane="A2A1_1" arrivalPos="133.20" arrivalSpeed="12.39" duration="72.00" routeLength="696.40" waitingTime="0.00" waitingCount="0" stopTime="0.00" timeLoss="15.33" rerouteNo="1" devices="vehroute_72 tripinfo_72 routing_72" vType="DEFAULT_VEHTYPE" speedFactor="0.94" vaporized=""/>
    <tripinfo id="51" depart="51.00" departLane="B2C2_0" departPos="5.10" departSpeed="0.00" departDelay="0.00" arrival="147.00" arrivalLane="B1B2_0" arrivalPos="129.20" arrivalSpeed="16.17" duration="96.00" routeLength="540.34" waitingTime="37.00" waitingCount="2" stopTime="0.00" timeLoss="60.98" rerouteNo="1" devices="vehroute_51 tripinfo_51 routing_51" vType="DEFAULT_VEHTYPE" speedFactor="1.17" vaporized=""/>
    <tripinfo id="88" depart="88.00" departLane="A1A0_0" departPos="5.10" departSpeed="0.00" departDelay="0.00" arrival="148.00" arrivalLane="B1A1_0" arrivalPos="129.20" arrivalSpeed="11.49" duration="60.00" routeLength="571.30" waitingTime="0.00" waitingCount="0" stopTime="0.00" timeLoss="17.19" rerouteNo="1" devices="vehroute_88 tripinfo_88 routing_88" vType="DEFAULT_VEHTYPE" speedFactor="1.01" vaporized=""/>
    <tripinfo id="107" depart="107.00" departLane="C2B2_0" departPos="5.10" departSpeed="0.00" departDelay="0.00" arrival="148.00" arrivalLane="C2C1_1" arrivalPos="133.20" arrivalSpeed="13.21" duration="41.00" routeLength="406.91" waitingTime="0.00" waitingCount="0" stopTime="0.00" timeLoss="10.25" rerouteNo="1" devices="vehroute_107 tripinfo_107 routing_107" vType="DEFAULT_VEHTYPE" speedFactor="1.03" vaporized=""/>
    <tripinfo id="60" depart="60.00" departLane="C0C1_0" departPos="5.10" departSpeed="0.00" departDelay="0.00" arrival="149.00" arrivalLane="B1B2_0" arrivalPos="129.20" arrivalSpeed="13.96" duration="89.00" routeLength="414.88" waitingTime="41.00" waitingCount="3" stopTime="0.00" timeLoss="60.30" rerouteNo="1" devices="vehroute_60 tripinfo_60 routing_60" vType="DEFAULT_VEHTYPE" speedFactor="1.08" vaporized=""/>
    <tripinfo id="64" depart="64.00" departLane="C1C2_0" departPos="5.10" departSpeed="0.00" departDelay="0.00" arrival="149.00" arrivalLane="C1B1_0" arrivalPos="129.20" arrivalSpeed="12.56" duration="85.00" routeLength="686.08" waitingTime="2.00" waitingCount="1" stopTime="0.00" timeLoss="28.38" rerouteNo="1" devices="vehroute_64 tripinfo_64 routing_64" vType="DEFAULT_VEHTYPE" speedFactor="0.94" vaporized=""/>
    <tripinfo id="74" depart="74.00" departLane="A1B1_0" departPos="5.10" departSpeed="0.00" departDelay="0.00" arrival="149.00" arrivalLane="B0A0_0" arrivalPos="133.20" arrivalSpeed="12.19" duration="75.00" routeLength="404.56" waitingTime="32.00" waitingCount="1" stopTime="0.00" timeLoss="42.24" rerouteNo="1" devices="vehroute_74 tripinfo_74 routing_74" vType="DEFAULT_VEHTYPE" speedFactor="0.96" vaporized=""/>
    <tripinfo id="37" depart="37.00" departLane="B2B1_0" departPos="5.10" departSpeed="0.00" departDelay="0.00" arrival="151.00" arrivalLane="B0C0_1" arrivalPos="133.20" arrivalSpeed="9.35" duration="114.00" routeLength="426.65" waitingTime="63.00" waitingCount="3" stopTime="0.00" timeLoss="87.16" rerouteNo="1" devices="vehroute_37 tripinfo_37 routing_37" vType="DEFAULT_VEHTYPE" speedFactor="1.18" vaporized=""/>