<?xml version="1.0" encoding="UTF-8"?>

<!-- generated on 2024-03-13 21:10:37 by Eclipse SUMO GUI Version 1.19.0
<configuration xmlns:xsi="http://www.w3.org/2001/XMLSchema-instance" xsi:noNamespaceSchemaLocation="http://sumo.dlr.de/xsd/sumoConfiguration.xsd">

    <input>
        <net-file value="road.net.xml"/>
        <route-files value="trips.trips.xml"/>
        <additional-files value="dump_10.add.xml"/>
    </input>

    <output>
        <summary-output value="summary_10.xml"/>
        <tripinfo-output value="tripinfo.xml"/>
        <vehroute-output value="vehroutes_10.xml"/>
        <vehroute-output.exit-times value="False"/>
        <vehroute-output.last-route value="False"/>
        <vehroute-output.sorted value="False"/>
    </output>

    <time>
        <begin value="0"/>
    </time>

    <processing>
        <route-steps value="200"/>
    </processing>

    <routing>
        <routing-algorithm value="astar"/>
        <device.rerouting.probability value="1"/>
        <device.rerouting.period value="10"/>
        <device.rerouting.adaptation-interval value="1"/>
        <device.rerouting.with-taz value="False"/>
    </routing>

    <report>
        <verbose value="True"/>
        <no-warnings value="True"/>
    </report>

    <traci_server>
        <remote-port value="47181"/>
    </traci_server>

</configuration>
-->

<tripinfos xmlns:xsi="http://www.w3.org/2001/XMLSchema-instance" xsi:noNamespaceSchemaLocation="http://sumo.dlr.de/xsd/tripinfo_file.xsd">
    <tripinfo id="13" depart="13.00" departLane="A1A0_0" departPos="5.10" departSpeed="0.00" departDelay="0.00" arrival="25.00" arrivalLane="A1A0_0" arrivalPos="133.20" arrivalSpeed="14.41" duration="12.00" routeLength="128.10" waitingTime="0.00" waitingCount="0" stopTime="0.00" timeLoss="3.72" rerouteNo="1" devices="vehroute_13 tripinfo_13 routing_13" vType="DEFAULT_VEHTYPE" speedFactor="1.12" vaporized=""/>
    <tripinfo id="6" depart="6.00" departLane="A0A1_0" departPos="5.10" departSpeed="0.00" departDelay="0.00" arrival="31.00" arrivalLane="A1B1_0" arrivalPos="129.20" arrivalSpeed="14.07" duration="25.00" routeLength="266.33" waitingTime="0.00" waitingCount="0" stopTime="0.00" timeLoss="5.77" rerouteNo="0" devices="vehroute_6 tripinfo_6 routing_6" vType="DEFAULT_VEHTYPE" speedFactor="1.05" vaporized=""/>
    <tripinfo id="7" depart="7.00" departLane="B2B1_0" departPos="5.10" departSpeed="0.00" departDelay="0.00" arrival="35.00" arrivalLane="B1C1_1" arrivalPos="129.20" arrivalSpeed="11.31" duration="28.00" routeLength="272.65" waitingTime="0.00" waitingCount="0" stopTime="0.00" timeLoss="4.56" rerouteNo="0" devices="vehroute_7 tripinfo_7 routing_7" vType="DEFAULT_VEHTYPE" speedFactor="0.89" vaporized=""/>
    <tripinfo id="1" depart="1.00" departLane="A2B2_0" departPos="5.10" departSpeed="0.00" departDelay="0.00" arrival="43.00" arrivalLane="A2A1_0" arrivalPos="133.20" arrivalSpeed="11.93" duration="42.00" routeLength="412.07" waitingTime="0.00" waitingCount="0" stopTime="0.00" timeLoss="8.74" rerouteNo="1" devices="vehroute_1 tripinfo_1 routing_1" vType="DEFAULT_VEHTYPE" speedFactor="0.94" vaporized=""/>
    <tripinfo id="2" depart="2.00" departLane="C0B0_0" departPos="5.10" departSpeed="0.00" departDelay="0.00" arrival="58.00" arrivalLane="B2C2_1" arrivalPos="133.20" arrivalSpeed="12.88" duration="56.00" routeLength="563.72" waitingTime="4.00" waitingCount="1" stopTime="0.00" timeLoss="14.65" rerouteNo="1" devices="vehroute_2 tripinfo_2 routing_2" vType="DEFAULT_VEHTYPE" speedFactor="1.01" vaporized=""/>
    <tripinfo id="11" depart="11.00" departLane="B0B1_0" departPos="5.10" departSpeed="0.00" departDelay="0.00" arrival="58.00" arrivalLane="A1A2_0" arrivalPos="133.20" arrivalSpeed="14.02" duration="47.00" routeLength="414.88" waitingTime="4.00" waitingCount="1" stopTime="0.00" timeLoss="15.76" rerouteNo="1" devices="vehroute_11 tripinfo_11 routing_11" vType="DEFAULT_VEHTYPE" speedFactor="1.03" vaporized=""/>
    <tripinfo id="5" depart="5.00" departLane="A2A1_0" departPos="5.10" departSpeed="0.00" departDelay="0.00" arrival="61.00" arrivalLane="B1B2_1" arrivalPos="129.20" arrivalSpeed="11.40" duration="56.00" routeLength="425.20" waitingTime="8.00" waitingCount="1" stopTime="0.00" timeLoss="16.76" rerouteNo="1" devices="vehroute_5 tripinfo_5 routing_5" vType="DEFAULT_VEHTYPE" speedFactor="0.83" vaporized=""/>
    <tripinfo id="10" depart="12.00" departLane="C1B1_0" departPos="5.10" departSpeed="0.00" departDelay="2.00" arrival="69.00" arrivalLane="B2C2_0" arrivalPos="133.20" arrivalSpeed="14.25" duration="57.00" routeLength="404.56" waitingTime="17.00" waitingCount="1" stopTime="0.00" timeLoss="29.02" rerouteNo="1" devices="vehroute_10 tripinfo_10 routing_10" vType="DEFAULT_VEHTYPE" speedFactor="1.09" vaporized=""/>
    <tripinfo id="21" depart="21.00" departLane="A2A1_0" departPos="5.10" departSpeed="0.00" departDelay="0.00" arrival="69.00" arrivalLane="A2B2_0" arrivalPos="133.20" arrivalSpeed="8.47" duration="48.00" routeLength="406.91" waitingTime="2.00" waitingCount="1" stopTime="0.00" timeLoss="17.43" rerouteNo="1" devices="vehroute_21 tripinfo_21 routing_21" vType="DEFAULT_VEHTYPE" speedFactor="1.01" vaporized=""/>
    <tripinfo id="24" depart="24.00" departLane="B2B1_0" departPos="5.10" departSpeed="0.00" departDelay="0.00" arrival="75.00" arrivalLane="B0B1_0" arrivalPos="129.20" arrivalSpeed="5.48" duration="51.00" routeLength="407.98" waitingTime="0.00" waitingCount="0" stopTime="0.00" timeLoss="14.04" rerouteNo="1" devices="vehroute_24 tripinfo_24 routing_24" vType="DEFAULT_VEHTYPE" speedFactor="0.83" vaporized=""/>
    <tripinfo id="18" depart="18.00" departLane="C1B1_0" departPos="5.10" departSpeed="0.00" departDelay="0.00" arrival="76.00" arrivalLane="B2A2_1" arrivalPos="133.20" arrivalSpeed="11.99" duration="58.00" routeLength="414.88" waitingTime="11.00" waitingCount="1" stopTime="0.00" timeLoss="24.29" rerouteNo="1" devices="vehroute_18 tripinfo_18 routing_18" vType="DEFAULT_VEHTYPE" speedFactor="0.94" vaporized=""/>
    <tripinfo id="46" depart="51.00" departLane="C1B1_0" departPos="5.10" departSpeed="0.00" departDelay="5.00" arrival="76.00" arrivalLane="B1A1_0" arrivalPos="129.20" arrivalSpeed="13.55" duration="25.00" routeLength="274.10" waitingTime="0.00" waitingCount="0" stopTime="0.00" timeLoss="4.53" rerouteNo="0" devices="vehroute_46 tripinfo_46 routing_46" vType="DEFAULT_VEHTYPE" speedFactor="1.00" vaporized=""/>
    <tripinfo id="12" depart="12.00" departLane="C2B2_0" departPos="5.10" departSpeed="0.00" departDelay="0.00" arrival="77.00" arrivalLane="B0B1_1" arrivalPos="129.20" arrivalSpeed="7.64" duration="65.00" routeLength="560.53" waitingTime="1.00" waitingCount="1" stopTime="0.00" timeLoss="25.20" rerouteNo="1" devices="vehroute_12 tripinfo_12 routing_12" vType="DEFAULT_VEHTYPE" speedFactor="1.05" vaporized=""/>
    <tripinfo id="52" depart="52.00" departLane="A2B2_0" departPos="5.10" departSpeed="0.00" departDelay="0.00" arrival="78.00" arrivalLane="B2B1_0" arrivalPos="129.20" arrivalSpeed="13.12" duration="26.00" routeLength="266.33" waitingTime="0.00" waitingCount="0" stopTime="0.00" timeLoss="5.73" rerouteNo="0" devices="vehroute_52 tripinfo_52 routing_52" vType="DEFAULT_VEHTYPE" speedFactor="1.02" vaporized=""/>
    <tripinfo id="43" depart="43.00" departLane="C2C1_0" departPos="5.10" departSpeed="0.00" departDelay="0.00" arrival="80.00" arrivalLane="B1B2_0" arrivalPos="129.20" arrivalSpeed="14.09" duration="37.00" routeLength="404.56" waitingTime="0.00" waitingCount="0" stopTime="0.00" timeLoss="7.86" rerouteNo="1" devices="vehroute_43 tripinfo_43 routing_43" vType="DEFAULT_VEHTYPE" speedFactor="1.04" vaporized=""/>
    <tripinfo id="31" depart="31.00" departLane="B1C1_0" departPos="5.10" departSpeed="0.00" departDelay="0.00" arrival="81.00" arrivalLane="B2C2_0" arrivalPos="133.20" arrivalSpeed="15.40" duration="50.00" routeLength="538.44" waitingTime="0.00" waitingCount="0" stopTime="0.00" timeLoss="13.69" rerouteNo="1" devices="vehroute_31 tripinfo_31 routing_31" vType="DEFAULT_VEHTYPE" speedFactor="1.15" vaporized=""/>
    <tripinfo id="28" depart="28.00" departLane="A1B1_0" departPos="5.10" departSpeed="0.00" departDelay="0.00" arrival="82.00" arrivalLane="C0B0_0" arrivalPos="133.20" arrivalSpeed="15.71" duration="54.00" routeLength="552.11" waitingTime="3.00" waitingCount="1" stopTime="0.00" timeLoss="17.87" rerouteNo="1" devices="vehroute_28 tripinfo_28 routing_28" vType="DEFAULT_VEHTYPE" speedFactor="1.13" vaporized=""/>
    <tripinfo id="30" depart="30.00" departLane="C2C1_0" departPos="5.10" departSpeed="0.00" departDelay="0.00" arrival="82.00" arrivalLane="B2B1_0" arrivalPos="129.20" arrivalSpeed="6.41" duration="52.00" routeLength="538.44" waitingTime="0.00" waitingCount="0" stopTime="0.00" timeLoss="17.49" rerouteNo="1" devices="vehroute_30 tripinfo_30 routing_30" vType="DEFAULT_VEHTYPE" speedFactor="1.18" vaporized=""/>
    <tripinfo id="19" depart="19.00" departLane="C1C0_0" departPos="5.10" departSpeed="0.00" departDelay="0.00" arrival="84.00" arrivalLane="B1C1_0" arrivalPos="129.20" arrivalSpeed="15.28" duration="65.00" routeLength="540.34" waitingTime="12.00" waitingCount="1" stopTime="0.00" timeLoss="29.63" rerouteNo="1" devices="vehroute_19 tripinfo_19 routing_19" vType="DEFAULT_VEHTYPE" speedFactor="1.16" vaporized=""/>
    <tripinfo id="15" depart="15.00" departLane="C1B1_0" departPos="5.10" departSpeed="0.00" departDelay="0.00" arrival="93.00" arrivalLane="C0B0_0" arrivalPos="133.20" arrivalSpeed="12.80" duration="78.00" routeLength="535.98" waitingTime="17.00" waitingCount="2" stopTime="0.00" timeLoss="33.87" rerouteNo="1" devices="vehroute_15 tripinfo_15 routing_15" vType="DEFAULT_VEHTYPE" speedFactor="0.93" vaporized=""/>
    <tripinfo id="16" depart="16.00" departLane="B1B2_0" departPos="5.10" departSpeed="0.00" departDelay="0.00" arrival="93.00" arrivalLane="C2C1_0" arrivalPos="133.20" arrivalSpeed="5.34" duration="77.00" routeLength="402.11" waitingTime="24.00" waitingCount="2" stopTime="0.00" timeLoss="42.74" rerouteNo="1" devices="vehroute_16 tripinfo_16 routing_16" vType="DEFAULT_VEHTYPE" speedFactor="0.88" vaporized=""/>
    <tripinfo id="25" depart="25.00" departLane="B0B1_0" departPos="5.10" departSpeed="0.00" departDelay="0.00" arrival="93.00" arrivalLane="A2A1_0" arrivalPos="133.20" arrivalSpeed="4.87" duration="68.00" routeLength="572.75" waitingTime="3.00" waitingCount="1" stopTime="0.00" timeLoss="18.97" rerouteNo="1" devices="vehroute_25 tripinfo_25 routing_25" vType="DEFAULT_VEHTYPE" speedFactor="0.87" vaporized=""/>
    <tripinfo id="66" depart="67.00" departLane="C1C2_0" departPos="5.10" departSpeed="0.00" departDelay="1.00" arrival="95.00" arrivalLane="C2B2_0" arrivalPos="133.20" arrivalSpeed="12.29" duration="28.00" routeLength="279.36" waitingTime="0.00" waitingCount="0" stopTime="0.00" timeLoss="4.25" rerouteNo="0" devices="vehroute_66 tripinfo_66 routing_66" vType="DEFAULT_VEHTYPE" speedFactor="0.91" vaporized=""/>
    <tripinfo id="79" depart="79.00" departLane="A2A1_0" departPos="5.10" departSpeed="0.00" departDelay="0.00" arrival="95.00" arrivalLane="A2A1_0" arrivalPos="133.20" arrivalSpeed="7.20" duration="16.00" routeLength="128.10" waitingTime="0.00" waitingCount="0" stopTime="0.00" timeLoss="7.51" rerouteNo="1" devices="vehroute_79 tripinfo_79 routing_79" vType="DEFAULT_VEHTYPE" speedFactor="1.09" vaporized=""/>
    <tripinfo id="40" depart="40.00" departLane="B1C1_0" departPos="5.10" departSpeed="0.00" departDelay="0.00" arrival="103.00" arrivalLane="A2B2_1" arrivalPos="133.20" arrivalSpeed="14.11" duration="63.00" routeLength="696.31" waitingTime="0.00" waitingCount="0" stopTime="0.00" timeLoss="12.23" rerouteNo="1" devices="vehroute_40 tripinfo_40 routing_40" vType="DEFAULT_VEHTYPE" speedFactor="1.03" vaporized=""/>
    <tripinfo id="3" depart="3.00" departLane="C1C2_0" departPos="5.10" departSpeed="0.00" departDelay="0.00" arrival="104.00" arrivalLane="A1A0_0" arrivalPos="133.20" arrivalSpeed="13.78" duration="101.00" routeLength="738.62" waitingTime="36.00" waitingCount="1" stopTime="0.00" timeLoss="50.09" rerouteNo="1" devices="vehroute_3 tripinfo_3 routing_3" vType="DEFAULT_VEHTYPE" speedFactor="1.08" vaporized=""/>
    <tripinfo id="8" depart="8.00" departLane="A2A1_0" departPos="5.10" departSpeed="0.00" departDelay="0.00" arrival="104.00" arrivalLane="B2A2_1" arrivalPos="133.20" arrivalSpeed="12.31" duration="96.00" routeLength="544.78" waitingTime="37.00" waitingCount="1" stopTime="0.00" timeLoss="51.19" rerouteNo="1" devices="vehroute_8 tripinfo_8 routing_8" vType="DEFAULT_VEHTYPE" speedFactor="0.94" vaporized=""/>
    <tripinfo id="49" depart="51.00" departLane="C2C1_0" departPos="5.10" departSpeed="0.00" departDelay="2.00" arrival="106.00" arrivalLane="C1C0_0" arrivalPos="133.20" arrivalSpeed="10.59" duration="55.00" routeLength="282.10" waitingTime="22.00" waitingCount="1" stopTime="0.00" timeLoss="30.99" rerouteNo="0" devices="vehroute_49 tripinfo_49 routing_49" vType="DEFAULT_VEHTYPE" speedFactor="0.85" vaporized=""/>
    <tripinfo id="22" depart="22.00" departLane="A0B0_0" departPos="5.10" departSpeed="0.00" departDelay="0.00" arrival="116.00" arrivalLane="A2A1_0" arrivalPos="133.20" arrivalSpeed="12.61" duration="94.00" routeLength="725.30" waitingTime="20.00" waitingCount="1" stopTime="0.00" timeLoss="37.77" rerouteNo="1" devices="vehroute_22 tripinfo_22 routing_22" vType="DEFAULT_VEHTYPE" speedFactor="0.97" vaporized=""/>
    <tripinfo id="59" depart="59.00" departLane="B2A2_0" departPos="5.10" departSpeed="0.00" departDelay="0.00" arrival="117.00" arrivalLane="A1A2_1" arrivalPos="133.20" arrivalSpeed="12.54" duration="58.00" routeLength="412.07" waitingTime="6.00" waitingCount="1" stopTime="0.00" timeLoss="25.18" rerouteNo="1" devices="vehroute_59 tripinfo_59 routing_59" vType="DEFAULT_VEHTYPE" speedFactor="0.97" vaporized=""/>
    <tripinfo id="26" depart="26.00" departLane="A2B2_0" departPos="5.10" departSpeed="0.00" departDelay="0.00" arrival="118.00" arrivalLane="C2B2_1" arrivalPos="133.20" arrivalSpeed="12.65" duration="92.00" routeLength="707.01" waitingTime="21.00" waitingCount="1" stopTime="0.00" timeLoss="33.95" rerouteNo="1" devices="vehroute_26 tripinfo_26 routing_26" vType="DEFAULT_VEHTYPE" speedFactor="0.92" vaporized=""/>
    <tripinfo id="34" depart="34.00" departLane="B0A0_0" departPos="5.10" departSpeed="0.00" departDelay="0.00" arrival="118.00" arrivalLane="A2B2_0" arrivalPos="133.20" arrivalSpeed="13.66" duration="84.00" routeLength="553.66" waitingTime="25.00" waitingCount="1" stopTime="0.00" timeLoss="42.01" rerouteNo="1" devices="vehroute_34 tripinfo_34 routing_34" vType="DEFAULT_VEHTYPE" speedFactor="0.99" vaporized=""/>
    <tripinfo id="39" depart="39.00" departLane="A2B2_0" departPos="5.10" departSpeed="0.00" departDelay="0.00" arrival="123.00" arrivalLane="A2A1_0" arrivalPos="133.20" arrivalSpeed="11.25" duration="84.00" routeLength="417.23" waitingTime="35.00" waitingCount="1" stopTime="0.00" timeLoss="48.13" rerouteNo="1" devices="vehroute_39 tripinfo_39 routing_39" vType="DEFAULT_VEHTYPE" speedFactor="0.90" vaporized=""/>
    <tripinfo id="99" depart="101.00" departLane="C2C1_0" departPos="5.10" departSpeed="0.00" departDelay="2.00" arrival="125.00" arrivalLane="C1C0_0" arrivalPos="133.20" arrivalSpeed="7.50" duration="24.00" routeLength="282.10" waitingTime="0.00" waitingCount="0" stopTime="0.00" timeLoss="5.39" rerouteNo="0" devices="vehroute_99 tripinfo_99 routing_99" vType="DEFAULT_VEHTYPE" speedFactor="1.10" vaporized=""/>
    <tripinfo id="84" depart="86.00" departLane="A2A1_0" departPos="5.10" departSpeed="0.00" departDelay="2.00" arrival="126.00" arrivalLane="A1A2_1" arrivalPos="133.20" arrivalSpeed="14.64" duration="40.00" routeLength="265.97" waitingTime="0.00" waitingCount="0" stopTime="0.00" timeLoss="21.92" rerouteNo="0" devices="vehroute_84 tripinfo_84 routing_84" vType="DEFAULT_VEHTYPE" speedFactor="1.15" vaporized=""/>
    <tripinfo id="119" depart="120.00" departLane="B2A2_0" departPos="5.10" departSpeed="0.00" departDelay="1.00" arrival="132.00" arrivalLane="B2A2_0" arrivalPos="133.20" arrivalSpeed="14.26" duration="12.00" routeLength="128.10" waitingTime="0.00" waitingCount="0" stopTime="0.00" timeLoss="3.28" rerouteNo="1" devices="vehroute_119 tripinfo_119 routing_119" vType="DEFAULT_VEHTYPE" speedFactor="1.07" vaporized=""/>
    <tripinfo id="71" depart="71.00" departLane="A2B2_0" departPos="5.10" departSpeed="0.00" departDelay="0.00" arrival="133.00" arrivalLane="C1C0_0" arrivalPos="133.20" arrivalSpeed="12.80" duration="62.00" routeLength="577.04" waitingTime="3.00" waitingCount="1" stopTime="0.00" timeLoss="18.78" rerouteNo="1" devices="vehroute_71 tripinfo_71 routing_71" vType="DEFAULT_VEHTYPE" speedFactor="0.97" vaporized=""/>
    <tripinfo id="73" depart="73.00" departLane="B1B2_0" departPos="5.10" departSpeed="0.00" departDelay="0.00" arrival="134.00" arrivalLane="C0B0_0" arrivalPos="133.20" arrivalSpeed="14.55" duration="61.00" routeLength="691.89" waitingTime="0.00" waitingCount="0" stopTime="0.00" timeLoss="13.25" rerouteNo="1" devices="vehroute_73 tripinfo_73 routing_73" vType="DEFAULT_VEHTYPE" speedFactor="1.06" vaporized=""/>
    <tripinfo id="57" depart="58.00" departLane="C1C2_0" departPos="5.10" departSpeed="0.00" departDelay="1.00" arrival="137.00" arrivalLane="C1C0_1" arrivalPos="133.20" arrivalSpeed="15.22" duration="79.00" routeLength="707.01" waitingTime="8.00" waitingCount="1" stopTime="0.00" timeLoss="31.59" rerouteNo="1" devices="vehroute_57 tripinfo_57 routing_57" vType="DEFAULT_VEHTYPE" speedFactor="1.14" vaporized=""/>
    <tripinfo id="48" depart="48.00" departLane="C2C1_0" departPos="5.10" departSpeed="0.00" departDelay="0.00" arrival="138.00" arrivalLane="B1B2_0" arrivalPos="129.20" arrivalSpeed="4.77" duration="90.00" routeLength="404.56" waitingTime="38.00" waitingCount="2" stopTime="0.00" timeLoss="55.22" rerouteNo="1" devices="vehroute_48 tripinfo_48 routing_48" vType="DEFAULT_VEHTYPE" speedFactor="0.88" vaporized=""/>
    <tripinfo id="106" depart="106.00" departLane="B1A1_0" departPos="5.10" departSpeed="0.00" departDelay="0.00" arrival="138.00" arrivalLane="B1A1_0" arrivalPos="129.20" arrivalSpeed="7.11" duration="32.00" routeLength="124.10" waitingTime="15.00" waitingCount="1" stopTime="0.00" timeLoss="22.80" rerouteNo="1" devices="vehroute_106 tripinfo_106 routing_106" vType="DEFAULT_VEHTYPE" speedFactor="1.01" vaporized=""/>
    <tripinfo id="42" depart="42.00" departLane="B0C0_0" departPos="5.10" departSpeed="0.00" departDelay="0.00" arrival="140.00" arrivalLane="A2A1_1" arrivalPos="133.20" arrivalSpeed="7.26" duration="98.00" routeLength="889.88" waitingTime="20.00" waitingCount="1" stopTime="0.00" timeLoss="37.46" rerouteNo="1" devices="vehroute_42 tripinfo_42 routing_42" vType="DEFAULT_VEHTYPE" speedFactor="1.09" vaporized=""/>
    <tripinfo id="51" depart="51.00" departLane="B2C2_0" departPos="5.10" departSpeed="0.00" departDelay="0.00" arrival="140.00" arrivalLane="B1B2_0" arrivalPos="129.20" arrivalSpeed="7.32" duration="89.00" routeLength="540.34" waitingTime="25.00" waitingCount="3" stopTime="0.00" timeLoss="54.50" rerouteNo="1" devices="vehroute_51 tripinfo_51 routing_51" vType="DEFAULT_VEHTYPE" speedFactor="1.17" vaporized=""/>
    <tripinfo id="117" depart="117.00" departLane="A2A1_0" departPos="5.10" departSpeed="0.00" departDelay="0.00" arrival="141.00" arrivalLane="A1A0_0" arrivalPos="133.20" arrivalSpeed="13.71" duration="24.00" routeLength="282.10" waitingTime="0.00" waitingCount="0" stopTime="0.00" timeLoss="3.72" rerouteNo="0" devices="vehroute_117 tripinfo_117 routing_117" vType="DEFAULT_VEHTYPE" speedFactor="1.00" vaporized=""/>
    <tripinfo id="127" depart="127.00" departLane="C2C1_0" departPos="5.10" departSpeed="0.00" departDelay="0.00" arrival="142.00" arrivalLane="C2C1_0" arrivalPos="133.20" arrivalSpeed="10.78" duration="15.00" routeLength="128.10" waitingTime="0.00" waitingCount="0" stopTime="0.00" timeLoss="3.17" rerouteNo="1" devices="vehroute_127 tripinfo_127 routing_127" vType="DEFAULT_VEHTYPE" speedFactor="0.82" vaporized=""/>
    <tripinfo id="60" depart="60.00" departLane="C0C1_0" departPos="5.10" departSpeed="0.00" departDelay="0.00" arrival="143.00" arrivalLane="B1B2_0" arrivalPos="129.20" arrivalSpeed="9.25" duration="83.00" routeLength="414.88" waitingTime="26.00" waitingCount="4" stopTime="0.00" timeLoss="54.11" rerouteNo="1" devices="vehroute_60 tripinfo_60 routing_60" vType="DEFAULT_VEHTYPE" speedFactor="1.08" vaporized=""/>
    <tripinfo id="100" depart="104.00" departLane="C2C1_0" departPos="5.10" departSpeed="0.00" departDelay="4.00" arrival="143.00" arrivalLane="C2B2_1" arrivalPos="133.20" arrivalSpeed="14.23" duration="39.00" routeLength="412.07" waitingTime="0.00" waitingCount="0" stopTime="0.00" timeLoss="9.10" rerouteNo="1" devices="vehroute_100 tripinfo_100 routing_100" vType="DEFAULT_VEHTYPE" speedFactor="1.06" vaporized=""/>
    <tripinfo id="130" depart="130.00" departLane="C1C2_0" departPos="5.10" departSpeed="0.00" departDelay="0.00" arrival="143.00" arrivalLane="C1C2_0" arrivalPos="133.20" arrivalSpeed="13.87" duration="13.00" routeLength="128.10" waitingTime="0.00" waitingCount="0" stopTime="0.00" timeLoss="3.77" rerouteNo="1" devices="vehroute_130 tripinfo_130 routing_130" vType="DEFAULT_VEHTYPE" speedFactor="1.03" vaporized=""/>
    <tripinfo id="72" depart="72.00" departLane="B1A1_0" departPos="5.10" departSpeed="0.00" departDelay="0.00" arrival="144.00" arrivalLane="A2A1_1" arrivalPos="133.20" arrivalSpeed="12.57" duration="72.00" routeLength="696.40" waitingTime="0.00" waitingCount="0" stopTime="0.00" timeLoss="15.36" rerouteNo="1" devices="vehroute_72 tripinfo_72 routing_72" vType="DEFAULT_VEHTYPE" speedFactor="0.94" vaporized=""/>
    <tripinfo id="61" depart="63.00" departLane="C0C1_0" departPos="5.10" departSpeed="0.00" departDelay="2.00" arrival="145.00" arrivalLane="B1B2_0" arrivalPos="129.20" arrivalSpeed="11.01" duration="82.00" routeLength="414.88" waitingTime="19.00" waitingCount="3" stopTime="0.00" timeLoss="53.89" rerouteNo="1" devices="vehroute_61 tripinfo_61 routing_61" vType="DEFAULT_VEHTYPE" speedFactor="1.12" vaporized=""/>
    <tripinfo id="107" depart="107.00" departLane="C2B2_0" departPos="5.10" departSpeed="0.00" departDelay="0.00" arrival="148.00" arrivalLane="C2C1_1" arrivalPos="133.20" arrivalSpeed="13.65" duration="41.00" routeLength="406.91" waitingTime="0.00" waitingCount="0" stopTime="0.00" timeLoss="10.11" rerouteNo="1" devices="vehroute_107 tripinfo_107 routing_107" vType="DEFAULT_VEHTYPE" speedFactor="1.03" vaporized=""/>
    <tripinfo id="14" depart="14.00" departLane="C1C0_0" departPos="5.10" departSpeed="0.00" departDelay="0.00" arrival="149.00" arrivalLane="B2A2_1" arrivalPos="133.20" arrivalSpeed="12.48" duration="135.00" routeLength="704.66" waitingTime="63.00" waitingCount="2" stopTime="0.00" timeLoss="82.29" rerouteNo="1" devices="vehroute_14 tripinfo_14 routing_14" vType="DEFAULT_VEHTYPE" speedFactor="0.99" vaporized=""/>
    <tripinfo id="64" depart="64.00" departLane="C1C2_0" departPos="5.10" departSpeed="0.00" departDelay="0.00" arrival="149.00" arrivalLane="C1B1_0" arrivalPos="129.20" arrivalSpeed="12.48" duration="85.00" routeLength="686.08" waitingTime="3.00" waitingCount="1" stopTime="0.00" timeLoss="28.50" rerouteNo="1" devices="vehroute_64 tripinfo_64 routing_64" vType="DEFAULT_VEHTYPE" speedFactor="0.94" vaporized=""/>
    <tripinfo id="94" depart="102.00" departLane="A1B1_0" departPos="5.10" departSpeed="0.00" departDelay="8.00" arrival="149.00" arrivalLane="B1A1_0" arrivalPos="129.20" arrivalSpeed="10.05" duration="47.00" routeLength="257.97" waitingTime="2.00" waitingCount="1" stopTime="0.00" timeLoss="28.70" rerouteNo="0" devices="vehroute_94 tripinfo_94 routing_94" vType="DEFAULT_VEHTYPE" speedFactor="1.09" vaporized=""/>
    <tripinfo id="17" depart="17.00" departLane="B0C0_0" departPos="5.10" departSpeed="0.00" departDelay="0.00" arrival="151.00" arrivalLane="B1C1_1" arrivalPos="129.20" arrivalSpeed="11.26" duration="134.00" routeLength="556.62" waitingTime="65.00" waitingCount="4" stopTime="0.00" timeLoss="88.71" rerouteNo="1" devices="vehroute_17 tripinfo_17 routing_17" vType="DEFAULT_VEHTYPE" speedFactor="0.94" vaporized=""/>
    <tripinfo id="27" depart="27.00" departLane="B2B1_0" departPos="5.10" departSpeed="0.00" departDelay="0.00" arrival="152.00" arrivalLane="B2A2_1" arrivalPos="133.20" arrivalSpeed="12.80" duration="125.00" routeLength="410.52" waitingTime="72.00" waitingCount="3" stopTime="0.00" timeLoss="91.64" rerouteNo="1" devices="vehroute_27 tripinfo_27 routing_27" vType="DEFAULT_VEHTYPE" speedFactor="0.95" vaporized=""/>
    <tripinfo id="56" depart="60.00" departLane="B1B2_0" departPos="5.10" departSpeed="0.00" departDelay="4.00" arrival="153.00" arrivalLane="A1B1_1" arrivalPos="129.20" arrivalSpeed="10.01" duration="93.00" routeLength="530.09" waitingTime="31.00" waitingCount="1" stopTime="0.00" timeLoss="48.23" rerouteNo="1" devices="vehroute_56 tripinfo_56 routing_56" vType="DEFAULT_VEHTYPE" speedFactor="0.90" vaporized=""/>
    <tripinfo id="110" depart="110.00" departLane="C2C1_0" departPos="5.10" departSpeed="0.00" departDelay="0.00" arrival="153.00" arrivalLane="B1C1_1" arrivalPos="129.20" arrivalSpeed="12.17" duration="43.00" routeLength="400.20" waitingTime="0.00" waitingCount="0" stopTime="0.00" timeLoss="10.00" rerouteNo="1" devices="vehroute_110 tripinfo_110 routing_110" vType="DEFAULT_VEHTYPE" speedFactor="0.93" vaporized=""/>
    <tripinfo id="78" depart="78.00" departLane="B0B1_0" departPos="5.10" departSpeed="0.00" departDelay="0.00" arrival="154.00" arrivalLane="B2A2_1" arrivalPos="133.20" arrivalSpeed="13.83" duration="76.00" routeLength="426.65" waitingTime="34.00" waitingCount="1" stopTime="0.00" timeLoss="43.98" rerouteNo="1" devices="vehroute_78 tripinfo_78 routing_78" vType="DEFAULT_VEHTYPE" speedFactor="1.01" vaporized=""/>
    <tripinfo id="41" depart="41.00" departLane="B2A2_0" departPos="5.10" departSpeed="0.00" departDelay="0.00" arrival="159.00" arrivalLane="C1C2_1" arrivalPos="133.20" arrivalSpeed="13.11" duration="118.00" routeLength="725.30" waitingTime="28.00" waitingCount="2" stopTime="0.00" timeLoss="60.24" rerouteNo="1" devices="vehroute_41 tripinfo_41 routing_41" vType="DEFAULT_VEHTYPE" speedFactor="0.96" vaporized=""/>
    <tripinfo id="69" depart="69.00" departLane="C0C1_0" departPos="5.10" departSpeed="0.00" departDelay="0.00" arrival="159.00" arrivalLane="A1A2_0" arrivalPos="133.20" arrivalSpeed="13.73" duration="90.00" routeLength="568.88" waitingTime="16.00" waitingCount="3" stopTime="0.00" timeLoss="47.55" rerouteNo="1" devices="vehroute_69 tripinfo_69 routing_69" vType="DEFAULT_VEHTYPE" speedFactor="1.02" vaporized=""/>
    <tripinfo id="76" depart="78.00" departLane="B1A1_0" departPos="5.10" departSpeed="0.00" departDelay="2.00" arrival="160.00" arrivalLane="B1B2_1" arrivalPos="129.20" arrivalSpeed="14.20" duration="82.00" routeLength="406.53" waitingTime="41.00" waitingCount="1" stopTime="0.00" timeLoss="52.32" rerouteNo="1" devices="vehroute_76 tripinfo_76 routing_76" vType="DEFAULT_VEHTYPE" speedFactor="1.03" vaporized=""/>
    <tripinfo id="81" depart="82.00" departLane="A2A1_0" departPos="5.10" departSpeed="0.00" departDelay="1.00" arrival="160.00" arrivalLane="C1C2_1" arrivalPos="133.20" arrivalSpeed="13.70" duration="78.00" routeLength="579.20" waitingTime="2.00" waitingCount="1" stopTime="0.00" timeLoss="34.55" rerouteNo="1" devices="vehroute_81 tripinfo_81 routing_81" vType="DEFAULT_VEHTYPE" speedFactor="1.00" vaporized=""/>
    <tripinfo id="87" depart="87.00" departLane="C1B1_0" departPos="5.10" departSpeed="0.00" departDelay="0.00" arrival="163.00" arrivalLane="A1B1_1" arrivalPos="129.20" arrivalSpeed="13.97" duration="76.00" routeLength="407.98" waitingTime="21.00" waitingCount="2" stopTime="0.00" timeLoss="45.84" rerouteNo="1" devices="vehroute_87 tripinfo_87 routing_87" vType="DEFAULT_VEHTYPE" speedFactor="1.04" vaporized=""/>
    <tripinfo id="54" depart="54.00" departLane="B1A1_0" departPos="5.10" departSpeed="0.00" departDelay="0.00" arrival="164.00" arrivalLane="C2B2_1" arrivalPos="133.20" arrivalSpeed="13.03" duration="110.00" routeLength="706.63" waitingTime="36.00" waitingCount="2" stopTime="0.00" timeLoss="56.94" rerouteNo="1" devices="vehroute_54 tripinfo_54 routing_54" vType="DEFAULT_VEHTYPE" speedFactor="1.00" vaporized=""/>
    <tripinfo id="152" depart="152.00" departLane="A1A2_0" departPos="5.10" departSpeed="0.00" departDelay="0.00" arrival="165.00" arrivalLane="A1A2_0" arrivalPos="133.20" arrivalSpeed="13.85" duration="13.00" routeLength="128.10" waitingTime="0.00" waitingCount="0" stopTime="0.00" timeLoss="3.60" rerouteNo="1" devices="vehroute_152 tripinfo_152 routing_152" vType="DEFAULT_VEHTYPE" speedFactor="1.07" vaporized=""/>
    <tripinfo id="35" depart="36.00" departLane="A2A1_0" departPos="5.10" departSpeed="0.00" departDelay="1.00" arrival="166.00" arrivalLane="C2B2_1" arrivalPos="133.20" arrivalSpeed="13.16" duration="130.00" routeLength="725.30" waitingTime="47.00" waitingCount="4" stopTime="0.00" timeLoss="76.56" rerouteNo="1" devices="vehroute_35 tripinfo_35 routing_35" vType="DEFAULT_VEHTYPE" speedFactor="1.02" vaporized=""/>
    <tripinfo id="91" depart="91.00" departLane="C2C1_0" departPos="5.10" departSpeed="0.00" departDelay="0.00" arrival="167.00" arrivalLane="A1A0_1" arrivalPos="133.20" arrivalSpeed="11.25" duration="76.00" routeLength="568.88" waitingTime="5.00" waitingCount="2" stopTime="0.00" timeLoss="28.10" rerouteNo="1" devices="vehroute_91 tripinfo_91 routing_91" vType="DEFAULT_VEHTYPE" speedFactor="0.89" vaporized=""/>