<?xml version="1.0" encoding="UTF-8"?>

<!-- generated on 2024-03-25 20:42:36 by Eclipse SUMO GUI Version 1.19.0
<configuration xmlns:xsi="http://www.w3.org/2001/XMLSchema-instance" xsi:noNamespaceSchemaLocation="http://sumo.dlr.de/xsd/sumoConfiguration.xsd">

    <input>
        <net-file value="road.net.xml"/>
        <route-files value="route.rou.xml"/>
    </input>

    <output>
        <summary-output value="summary_10.xml"/>
        <tripinfo-output value="tripinfo.xml"/>
    </output>

    <time>
        <begin value="0"/>
    </time>

    <processing>
        <time-to-teleport value="-1"/>
    </processing>

    <report>
        <verbose value="True"/>
        <no-warnings value="True"/>
    </report>

    <traci_server>
        <remote-port value="57937"/>
    </traci_server>

</configuration>
-->

<tripinfos xmlns:xsi="http://www.w3.org/2001/XMLSchema-instance" xsi:noNamespaceSchemaLocation="http://sumo.dlr.de/xsd/tripinfo_file.xsd">
    <tripinfo id="13" depart="13.00" departLane="A1B1_0" departPos="5.10" departSpeed="0.00" departDelay="0.00" arrival="25.00" arrivalLane="A1B1_0" arrivalPos="129.20" arrivalSpeed="15.27" duration="12.00" routeLength="124.10" waitingTime="0.00" waitingCount="0" stopTime="0.00" timeLoss="3.42" rerouteNo="0" devices="tripinfo_13" vType="DEFAULT_VEHTYPE" speedFactor="1.12" vaporized=""/>
    <tripinfo id="14" depart="14.00" departLane="D1C1_0" departPos="5.10" departSpeed="0.00" departDelay="0.00" arrival="58.00" arrivalLane="C1C0_1" arrivalPos="129.20" arrivalSpeed="12.89" duration="44.00" routeLength="272.65" waitingTime="15.00" waitingCount="1" stopTime="0.00" timeLoss="23.54" rerouteNo="0" devices="tripinfo_14" vType="DEFAULT_VEHTYPE" speedFactor="0.99" vaporized=""/>
    <tripinfo id="29" depart="29.00" departLane="A2B2_0" departPos="5.10" departSpeed="0.00" departDelay="0.00" arrival="58.00" arrivalLane="B2B1_0" arrivalPos="129.20" arrivalSpeed="12.31" duration="29.00" routeLength="262.33" waitingTime="0.00" waitingCount="0" stopTime="0.00" timeLoss="8.16" rerouteNo="0" devices="tripinfo_29" vType="DEFAULT_VEHTYPE" speedFactor="0.93" vaporized=""/>
    <tripinfo id="2" depart="2.00" departLane="C3B3_0" departPos="5.10" departSpeed="0.00" departDelay="0.00" arrival="62.00" arrivalLane="C2C1_1" arrivalPos="129.20" arrivalSpeed="10.23" duration="60.00" routeLength="559.43" waitingTime="2.00" waitingCount="1" stopTime="0.00" timeLoss="17.08" rerouteNo="0" devices="tripinfo_2" vType="DEFAULT_VEHTYPE" speedFactor="1.01" vaporized=""/>
    <tripinfo id="9" depart="9.00" departLane="D0C0_0" departPos="5.10" departSpeed="0.00" departDelay="0.00" arrival="65.00" arrivalLane="A0A1_1" arrivalPos="133.20" arrivalSpeed="11.51" duration="56.00" routeLength="573.04" waitingTime="0.00" waitingCount="0" stopTime="0.00" timeLoss="6.92" rerouteNo="0" devices="tripinfo_9" vType="DEFAULT_VEHTYPE" speedFactor="0.86" vaporized=""/>
    <tripinfo id="28" depart="28.00" departLane="A3A2_0" departPos="5.10" departSpeed="0.00" departDelay="0.00" arrival="72.00" arrivalLane="C2D2_1" arrivalPos="129.20" arrivalSpeed="14.75" duration="44.00" routeLength="576.65" waitingTime="0.00" waitingCount="0" stopTime="0.00" timeLoss="6.41" rerouteNo="0" devices="tripinfo_28" vType="DEFAULT_VEHTYPE" speedFactor="1.13" vaporized=""/>
    <tripinfo id="37" depart="37.00" departLane="C2B2_0" departPos="5.10" departSpeed="0.00" departDelay="0.00" arrival="74.00" arrivalLane="B2B1_0" arrivalPos="129.20" arrivalSpeed="12.21" duration="37.00" routeLength="272.65" waitingTime="4.00" waitingCount="1" stopTime="0.00" timeLoss="19.31" rerouteNo="0" devices="tripinfo_37" vType="DEFAULT_VEHTYPE" speedFactor="1.18" vaporized=""/>
    <tripinfo id="6" depart="6.00" departLane="A0B0_0" departPos="5.10" departSpeed="0.00" departDelay="0.00" arrival="80.00" arrivalLane="A3B3_0" arrivalPos="133.20" arrivalSpeed="13.32" duration="74.00" routeLength="863.53" waitingTime="0.00" waitingCount="0" stopTime="0.00" timeLoss="11.24" rerouteNo="0" devices="tripinfo_6" vType="DEFAULT_VEHTYPE" speedFactor="1.05" vaporized=""/>
    <tripinfo id="8" depart="8.00" departLane="B0A0_0" departPos="5.10" departSpeed="0.00" departDelay="0.00" arrival="83.00" arrivalLane="C1C0_1" arrivalPos="129.20" arrivalSpeed="7.92" duration="75.00" routeLength="690.34" waitingTime="0.00" waitingCount="0" stopTime="0.00" timeLoss="20.69" rerouteNo="0" devices="tripinfo_8" vType="DEFAULT_VEHTYPE" speedFactor="0.94" vaporized=""/>
    <tripinfo id="18" depart="18.00" departLane="D0D1_0" departPos="5.10" departSpeed="0.00" departDelay="0.00" arrival="93.00" arrivalLane="C1C2_1" arrivalPos="129.20" arrivalSpeed="5.18" duration="75.00" routeLength="414.88" waitingTime="26.00" waitingCount="1" stopTime="0.00" timeLoss="41.21" rerouteNo="0" devices="tripinfo_18" vType="DEFAULT_VEHTYPE" speedFactor="0.94" vaporized=""/>
    <tripinfo id="47" depart="49.00" departLane="A1A2_0" departPos="5.10" departSpeed="0.00" departDelay="2.00" arrival="93.00" arrivalLane="B2B1_0" arrivalPos="129.20" arrivalSpeed="8.97" duration="44.00" routeLength="400.56" waitingTime="0.00" waitingCount="0" stopTime="0.00" timeLoss="9.98" rerouteNo="0" devices="tripinfo_47" vType="DEFAULT_VEHTYPE" speedFactor="0.90" vaporized=""/>
    <tripinfo id="5" depart="5.00" departLane="B0A0_0" departPos="5.10" departSpeed="0.00" departDelay="0.00" arrival="96.00" arrivalLane="C0B0_0" arrivalPos="129.20" arrivalSpeed="10.71" duration="91.00" routeLength="828.57" waitingTime="0.00" waitingCount="0" stopTime="0.00" timeLoss="15.02" rerouteNo="0" devices="tripinfo_5" vType="DEFAULT_VEHTYPE" speedFactor="0.83" vaporized=""/>
    <tripinfo id="10" depart="12.00" departLane="D0C0_0" departPos="5.10" departSpeed="0.00" departDelay="2.00" arrival="103.00" arrivalLane="C2C3_1" arrivalPos="129.20" arrivalSpeed="14.77" duration="91.00" routeLength="566.33" waitingTime="40.00" waitingCount="1" stopTime="0.00" timeLoss="52.63" rerouteNo="0" devices="tripinfo_10" vType="DEFAULT_VEHTYPE" speedFactor="1.09" vaporized=""/>
    <tripinfo id="17" depart="17.00" departLane="B2B1_0" departPos="5.10" departSpeed="0.00" departDelay="0.00" arrival="105.00" arrivalLane="C0D0_0" arrivalPos="133.20" arrivalSpeed="12.11" duration="88.00" routeLength="576.65" waitingTime="26.00" waitingCount="1" stopTime="0.00" timeLoss="42.27" rerouteNo="0" devices="tripinfo_17" vType="DEFAULT_VEHTYPE" speedFactor="0.94" vaporized=""/>
    <tripinfo id="66" depart="66.00" departLane="D1D2_0" departPos="5.10" departSpeed="0.00" departDelay="0.00" arrival="105.00" arrivalLane="D2D3_0" arrivalPos="133.20" arrivalSpeed="11.66" duration="39.00" routeLength="278.10" waitingTime="7.00" waitingCount="1" stopTime="0.00" timeLoss="16.53" rerouteNo="0" devices="tripinfo_66" vType="DEFAULT_VEHTYPE" speedFactor="0.91" vaporized=""/>
    <tripinfo id="38" depart="38.00" departLane="D2C2_0" departPos="5.10" departSpeed="0.00" departDelay="0.00" arrival="106.00" arrivalLane="B3B2_1" arrivalPos="129.20" arrivalSpeed="14.07" duration="68.00" routeLength="559.43" waitingTime="15.00" waitingCount="1" stopTime="0.00" timeLoss="28.92" rerouteNo="0" devices="tripinfo_38" vType="DEFAULT_VEHTYPE" speedFactor="1.10" vaporized=""/>
    <tripinfo id="30" depart="30.00" departLane="D3D2_0" departPos="5.10" departSpeed="0.00" departDelay="0.00" arrival="118.00" arrivalLane="C1D1_1" arrivalPos="129.20" arrivalSpeed="7.19" duration="88.00" routeLength="563.43" waitingTime="27.00" waitingCount="2" stopTime="0.00" timeLoss="51.62" rerouteNo="0" devices="tripinfo_30" vType="DEFAULT_VEHTYPE" speedFactor="1.18" vaporized=""/>
    <tripinfo id="19" depart="19.00" departLane="D1D0_0" departPos="5.10" departSpeed="0.00" departDelay="0.00" arrival="119.00" arrivalLane="C1B1_1" arrivalPos="129.20" arrivalSpeed="11.32" duration="100.00" routeLength="550.66" waitingTime="41.00" waitingCount="2" stopTime="0.00" timeLoss="63.53" rerouteNo="0" devices="tripinfo_19" vType="DEFAULT_VEHTYPE" speedFactor="1.16" vaporized=""/>
    <tripinfo id="84" depart="84.00" departLane="B0A0_0" departPos="5.10" departSpeed="0.00" departDelay="0.00" arrival="128.00" arrivalLane="A2A3_1" arrivalPos="133.20" arrivalSpeed="15.58" duration="44.00" routeLength="573.04" waitingTime="0.00" waitingCount="0" stopTime="0.00" timeLoss="6.95" rerouteNo="0" devices="tripinfo_84" vType="DEFAULT_VEHTYPE" speedFactor="1.15" vaporized=""/>
    <tripinfo id="43" depart="43.00" departLane="D3D2_0" departPos="5.10" departSpeed="0.00" departDelay="0.00" arrival="138.00" arrivalLane="C0B0_0" arrivalPos="129.20" arrivalSpeed="13.78" duration="95.00" routeLength="717.88" waitingTime="30.00" waitingCount="1" stopTime="0.00" timeLoss="44.86" rerouteNo="0" devices="tripinfo_43" vType="DEFAULT_VEHTYPE" speedFactor="1.04" vaporized=""/>
    <tripinfo id="74" depart="74.00" departLane="A3B3_0" departPos="5.10" departSpeed="0.00" departDelay="0.00" arrival="138.00" arrivalLane="B1B0_0" arrivalPos="129.20" arrivalSpeed="5.05" duration="64.00" routeLength="566.33" waitingTime="7.00" waitingCount="2" stopTime="0.00" timeLoss="20.36" rerouteNo="0" devices="tripinfo_74" vType="DEFAULT_VEHTYPE" speedFactor="0.96" vaporized=""/>
    <tripinfo id="20" depart="20.00" departLane="C2C3_0" departPos="5.10" departSpeed="0.00" departDelay="0.00" arrival="139.00" arrivalLane="A1A0_0" arrivalPos="133.20" arrivalSpeed="14.00" duration="119.00" routeLength="881.91" waitingTime="36.00" waitingCount="2" stopTime="0.00" timeLoss="54.67" rerouteNo="0" devices="tripinfo_20" vType="DEFAULT_VEHTYPE" speedFactor="1.02" vaporized=""/>
    <tripinfo id="41" depart="41.00" departLane="C1C0_0" departPos="5.10" departSpeed="0.00" departDelay="0.00" arrival="141.00" arrivalLane="D2C2_0" arrivalPos="129.20" arrivalSpeed="6.75" duration="100.00" routeLength="721.30" waitingTime="12.00" waitingCount="3" stopTime="0.00" timeLoss="43.99" rerouteNo="0" devices="tripinfo_41" vType="DEFAULT_VEHTYPE" speedFactor="0.96" vaporized=""/>
    <tripinfo id="52" depart="52.00" departLane="B0C0_0" departPos="5.10" departSpeed="0.00" departDelay="0.00" arrival="141.00" arrivalLane="C1D1_1" arrivalPos="129.20" arrivalSpeed="9.07" duration="89.00" routeLength="410.88" waitingTime="35.00" waitingCount="3" stopTime="0.00" timeLoss="57.74" rerouteNo="0" devices="tripinfo_52" vType="DEFAULT_VEHTYPE" speedFactor="1.02" vaporized=""/>
    <tripinfo id="99" depart="99.00" departLane="D3D2_0" departPos="5.10" departSpeed="0.00" departDelay="0.00" arrival="141.00" arrivalLane="D1C1_1" arrivalPos="129.20" arrivalSpeed="8.28" duration="42.00" routeLength="416.33" waitingTime="2.00" waitingCount="1" stopTime="0.00" timeLoss="13.65" rerouteNo="0" devices="tripinfo_99" vType="DEFAULT_VEHTYPE" speedFactor="1.10" vaporized=""/>
    <tripinfo id="12" depart="12.00" departLane="D2D3_0" departPos="5.10" departSpeed="0.00" departDelay="0.00" arrival="142.00" arrivalLane="B1C1_0" arrivalPos="129.20" arrivalSpeed="2.91" duration="130.00" routeLength="871.30" waitingTime="41.00" waitingCount="2" stopTime="0.00" timeLoss="67.85" rerouteNo="0" devices="tripinfo_12" vType="DEFAULT_VEHTYPE" speedFactor="1.05" vaporized=""/>
    <tripinfo id="127" depart="127.00" departLane="D3D2_0" departPos="5.10" departSpeed="0.00" departDelay="0.00" arrival="142.00" arrivalLane="D3D2_0" arrivalPos="133.20" arrivalSpeed="10.21" duration="15.00" routeLength="128.10" waitingTime="0.00" waitingCount="0" stopTime="0.00" timeLoss="3.04" rerouteNo="0" devices="tripinfo_127" vType="DEFAULT_VEHTYPE" speedFactor="0.82" vaporized=""/>
    <tripinfo id="130" depart="130.00" departLane="D1D2_0" departPos="5.10" departSpeed="0.00" departDelay="0.00" arrival="142.00" arrivalLane="D1D2_0" arrivalPos="129.20" arrivalSpeed="13.07" duration="12.00" routeLength="124.10" waitingTime="0.00" waitingCount="0" stopTime="0.00" timeLoss="3.30" rerouteNo="0" devices="tripinfo_130" vType="DEFAULT_VEHTYPE" speedFactor="1.03" vaporized=""/>
    <tripinfo id="3" depart="3.00" departLane="D1D2_0" departPos="5.10" departSpeed="0.00" departDelay="0.00" arrival="143.00" arrivalLane="A1B1_0" arrivalPos="129.20" arrivalSpeed="7.28" duration="140.00" routeLength="869.75" waitingTime="34.00" waitingCount="7" stopTime="0.00" timeLoss="80.42" rerouteNo="0" devices="tripinfo_3" vType="DEFAULT_VEHTYPE" speedFactor="1.08" vaporized=""/>
    <tripinfo id="58" depart="58.00" departLane="B1B0_0" departPos="5.10" departSpeed="0.00" departDelay="0.00" arrival="143.00" arrivalLane="C1D1_0" arrivalPos="129.20" arrivalSpeed="7.61" duration="85.00" routeLength="559.43" waitingTime="18.00" waitingCount="3" stopTime="0.00" timeLoss="43.99" rerouteNo="0" devices="tripinfo_58" vType="DEFAULT_VEHTYPE" speedFactor="1.02" vaporized=""/>
    <tripinfo id="68" depart="68.00" departLane="A1A2_0" departPos="5.10" departSpeed="0.00" departDelay="0.00" arrival="143.00" arrivalLane="C3C2_1" arrivalPos="129.20" arrivalSpeed="6.04" duration="75.00" routeLength="702.11" waitingTime="8.00" waitingCount="1" stopTime="0.00" timeLoss="25.82" rerouteNo="0" devices="tripinfo_68" vType="DEFAULT_VEHTYPE" speedFactor="1.04" vaporized=""/>
    <tripinfo id="11" depart="11.00" departLane="B1C1_0" departPos="5.10" departSpeed="0.00" departDelay="0.00" arrival="146.00" arrivalLane="A2B2_0" arrivalPos="129.20" arrivalSpeed="7.01" duration="135.00" routeLength="978.57" waitingTime="35.00" waitingCount="2" stopTime="0.00" timeLoss="64.45" rerouteNo="0" devices="tripinfo_11" vType="DEFAULT_VEHTYPE" speedFactor="1.03" vaporized=""/>
    <tripinfo id="32" depart="32.00" departLane="D1C1_0" departPos="5.10" departSpeed="0.00" departDelay="0.00" arrival="148.00" arrivalLane="C3D3_0" arrivalPos="133.20" arrivalSpeed="13.18" duration="116.00" routeLength="554.56" waitingTime="56.00" waitingCount="2" stopTime="0.00" timeLoss="75.17" rerouteNo="0" devices="tripinfo_32" vType="DEFAULT_VEHTYPE" speedFactor="1.01" vaporized=""/>
    <tripinfo id="57" depart="57.00" departLane="D2C2_0" departPos="5.10" departSpeed="0.00" departDelay="0.00" arrival="148.00" arrivalLane="D1D0_1" arrivalPos="133.20" arrivalSpeed="15.80" duration="91.00" routeLength="568.59" waitingTime="25.00" waitingCount="3" stopTime="0.00" timeLoss="52.36" rerouteNo="0" devices="tripinfo_57" vType="DEFAULT_VEHTYPE" speedFactor="1.14" vaporized=""/>
    <tripinfo id="78" depart="78.00" departLane="B1C1_0" departPos="5.10" departSpeed="0.00" departDelay="0.00" arrival="148.00" arrivalLane="C1C0_0" arrivalPos="129.20" arrivalSpeed="13.22" duration="70.00" routeLength="262.33" waitingTime="42.00" waitingCount="1" stopTime="0.00" timeLoss="50.26" rerouteNo="0" devices="tripinfo_78" vType="DEFAULT_VEHTYPE" speedFactor="1.01" vaporized=""/>
    <tripinfo id="1" depart="1.00" departLane="B1A1_0" departPos="5.10" departSpeed="0.00" departDelay="0.00" arrival="149.00" arrivalLane="B0A0_0" arrivalPos="133.20" arrivalSpeed="11.82" duration="148.00" routeLength="831.02" waitingTime="56.00" waitingCount="2" stopTime="0.00" timeLoss="80.93" rerouteNo="0" devices="tripinfo_1" vType="DEFAULT_VEHTYPE" speedFactor="0.94" vaporized=""/>
    <tripinfo id="26" depart="26.00" departLane="B0C0_0" departPos="5.10" departSpeed="0.00" departDelay="0.00" arrival="149.00" arrivalLane="D2D1_0" arrivalPos="129.20" arrivalSpeed="11.91" duration="123.00" routeLength="699.11" waitingTime="49.00" waitingCount="2" stopTime="0.00" timeLoss="64.97" rerouteNo="0" devices="tripinfo_26" vType="DEFAULT_VEHTYPE" speedFactor="0.92" vaporized=""/>
    <tripinfo id="67" depart="67.00" departLane="A1B1_0" departPos="5.10" departSpeed="0.00" departDelay="0.00" arrival="149.00" arrivalLane="B3C3_0" arrivalPos="129.20" arrivalSpeed="11.41" duration="82.00" routeLength="560.88" waitingTime="20.00" waitingCount="1" stopTime="0.00" timeLoss="35.52" rerouteNo="0" devices="tripinfo_67" vType="DEFAULT_VEHTYPE" speedFactor="0.91" vaporized=""/>
    <tripinfo id="85" depart="85.00" departLane="D2D1_0" departPos="5.10" departSpeed="0.00" departDelay="0.00" arrival="149.00" arrivalLane="C1B1_0" arrivalPos="129.20" arrivalSpeed="13.03" duration="64.00" routeLength="412.33" waitingTime="21.00" waitingCount="1" stopTime="0.00" timeLoss="32.82" rerouteNo="0" devices="tripinfo_85" vType="DEFAULT_VEHTYPE" speedFactor="0.98" vaporized=""/>
    <tripinfo id="46" depart="46.00" departLane="D0C0_0" departPos="5.10" departSpeed="0.00" departDelay="0.00" arrival="150.00" arrivalLane="B2C2_1" arrivalPos="129.20" arrivalSpeed="7.52" duration="104.00" routeLength="704.56" waitingTime="30.00" waitingCount="2" stopTime="0.00" timeLoss="51.97" rerouteNo="0" devices="tripinfo_46" vType="DEFAULT_VEHTYPE" speedFactor="1.00" vaporized=""/>
    <tripinfo id="75" depart="77.00" departLane="D3D2_0" departPos="5.10" departSpeed="0.00" departDelay="2.00" arrival="152.00" arrivalLane="C2B2_0" arrivalPos="129.20" arrivalSpeed="12.96" duration="75.00" routeLength="416.33" waitingTime="24.00" waitingCount="1" stopTime="0.00" timeLoss="44.04" rerouteNo="0" devices="tripinfo_75" vType="DEFAULT_VEHTYPE" speedFactor="0.98" vaporized=""/>
    <tripinfo id="49" depart="49.00" departLane="D3C3_0" departPos="5.10" departSpeed="0.00" departDelay="0.00" arrival="153.00" arrivalLane="D1D0_1" arrivalPos="133.20" arrivalSpeed="11.33" duration="104.00" routeLength="722.59" waitingTime="24.00" waitingCount="1" stopTime="0.00" timeLoss="39.85" rerouteNo="0" devices="tripinfo_49" vType="DEFAULT_VEHTYPE" speedFactor="0.85" vaporized=""/>
    <tripinfo id="100" depart="100.00" departLane="D3C3_0" departPos="5.10" departSpeed="0.00" departDelay="0.00" arrival="153.00" arrivalLane="D2D1_1" arrivalPos="129.20" arrivalSpeed="14.18" duration="53.00" routeLength="568.59" waitingTime="0.00" waitingCount="0" stopTime="0.00" timeLoss="11.58" rerouteNo="0" devices="tripinfo_100" vType="DEFAULT_VEHTYPE" speedFactor="1.06" vaporized=""/>
    <tripinfo id="15" depart="15.00" departLane="D0C0_0" departPos="5.10" departSpeed="0.00" departDelay="0.00" arrival="154.00" arrivalLane="C3B3_0" arrivalPos="129.20" arrivalSpeed="5.93" duration="139.00" routeLength="714.88" waitingTime="61.00" waitingCount="2" stopTime="0.00" timeLoss="81.64" rerouteNo="0" devices="tripinfo_15" vType="DEFAULT_VEHTYPE" speedFactor="0.93" vaporized=""/>
    <tripinfo id="27" depart="27.00" departLane="C2B2_0" departPos="5.10" departSpeed="0.00" departDelay="0.00" arrival="156.00" arrivalLane="C1C2_1" arrivalPos="129.20" arrivalSpeed="12.94" duration="129.00" routeLength="569.75" waitingTime="49.00" waitingCount="6" stopTime="0.00" timeLoss="83.09" rerouteNo="0" devices="tripinfo_27" vType="DEFAULT_VEHTYPE" speedFactor="0.95" vaporized=""/>
    <tripinfo id="71" depart="71.00" departLane="B0C0_0" departPos="5.10" departSpeed="0.00" departDelay="0.00" arrival="156.00" arrivalLane="D1D0_1" arrivalPos="133.20" arrivalSpeed="13.12" duration="85.00" routeLength="558.27" waitingTime="13.00" waitingCount="3" stopTime="0.00" timeLoss="41.23" rerouteNo="0" devices="tripinfo_71" vType="DEFAULT_VEHTYPE" speedFactor="0.97" vaporized=""/>
    <tripinfo id="73" depart="73.00" departLane="C0C1_0" departPos="5.10" departSpeed="0.00" departDelay="0.00" arrival="156.00" arrivalLane="C3B3_1" arrivalPos="129.20" arrivalSpeed="7.11" duration="83.00" routeLength="572.65" waitingTime="21.00" waitingCount="2" stopTime="0.00" timeLoss="43.18" rerouteNo="0" devices="tripinfo_73" vType="DEFAULT_VEHTYPE" speedFactor="1.06" vaporized=""/>
    <tripinfo id="106" depart="106.00" departLane="B3A3_0" departPos="5.10" departSpeed="0.00" departDelay="0.00" arrival="159.00" arrivalLane="B2C2_1" arrivalPos="129.20" arrivalSpeed="14.02" duration="53.00" routeLength="572.75" waitingTime="0.00" waitingCount="0" stopTime="0.00" timeLoss="10.48" rerouteNo="0" devices="tripinfo_106" vType="DEFAULT_VEHTYPE" speedFactor="1.01" vaporized=""/>
    <tripinfo id="45" depart="45.00" departLane="A2A1_0" departPos="5.10" departSpeed="0.00" departDelay="0.00" arrival="162.00" arrivalLane="C1D1_0" arrivalPos="129.20" arrivalSpeed="7.30" duration="117.00" routeLength="572.65" waitingTime="53.00" waitingCount="3" stopTime="0.00" timeLoss="78.43" rerouteNo="0" devices="tripinfo_45" vType="DEFAULT_VEHTYPE" speedFactor="1.09" vaporized=""/>
    <tripinfo id="69" depart="69.00" departLane="C3C2_0" departPos="5.10" departSpeed="0.00" departDelay="0.00" arrival="162.00" arrivalLane="A2A3_0" arrivalPos="133.20" arrivalSpeed="13.48" duration="93.00" routeLength="554.56" waitingTime="34.00" waitingCount="2" stopTime="0.00" timeLoss="51.66" rerouteNo="0" devices="tripinfo_69" vType="DEFAULT_VEHTYPE" speedFactor="1.02" vaporized=""/>
    <tripinfo id="0" depart="0.00" departLane="C1D1_0" departPos="5.10" departSpeed="0.00" departDelay="0.00" arrival="164.00" arrivalLane="A0B0_0" arrivalPos="133.20" arrivalSpeed="7.67" duration="164.00" routeLength="1137.54" waitingTime="48.00" waitingCount="3" stopTime="0.00" timeLoss="82.85" rerouteNo="0" devices="tripinfo_0" vType="DEFAULT_VEHTYPE" speedFactor="1.06" vaporized=""/>
    <tripinfo id="24" depart="24.00" departLane="C1D1_0" departPos="5.10" departSpeed="0.00" departDelay="0.00" arrival="166.00" arrivalLane="B2A2_0" arrivalPos="129.20" arrivalSpeed="10.82" duration="142.00" routeLength="721.20" waitingTime="53.00" waitingCount="4" stopTime="0.00" timeLoss="77.53" rerouteNo="0" devices="tripinfo_24" vType="DEFAULT_VEHTYPE" speedFactor="0.83" vaporized=""/>
    <tripinfo id="94" depart="94.00" departLane="A3B3_0" departPos="5.10" departSpeed="0.00" departDelay="0.00" arrival="166.00" arrivalLane="B3A3_1" arrivalPos="133.20" arrivalSpeed="14.43" duration="72.00" routeLength="845.34" waitingTime="0.00" waitingCount="0" stopTime="0.00" timeLoss="13.46" rerouteNo="0" devices="tripinfo_94" vType="DEFAULT_VEHTYPE" speedFactor="1.09" vaporized=""/>
    <tripinfo id="16" depart="16.00" departLane="C0C1_0" departPos="5.10" departSpeed="0.00" departDelay="0.00" arrival="168.00" arrivalLane="D3C3_0" arrivalPos="133.20" arrivalSpeed="11.43" duration="152.00" routeLength="710.98" waitingTime="72.00" waitingCount="2" stopTime="0.00" timeLoss="90.59" rerouteNo="0" devices="tripinfo_16" vType="DEFAULT_VEHTYPE" speedFactor="0.88" vaporized=""/>
    <tripinfo id="50" depart="54.00" departLane="A0A1_0" departPos="5.10" departSpeed="0.00" departDelay="4.00" arrival="168.00" arrivalLane="C2D2_0" arrivalPos="129.20" arrivalSpeed="11.02" duration="114.00" routeLength="716.33" waitingTime="24.00" waitingCount="3" stopTime="0.00" timeLoss="52.51" rerouteNo="0" devices="tripinfo_50" vType="DEFAULT_VEHTYPE" speedFactor="0.85" vaporized=""/>
    <tripinfo id="25" depart="25.00" departLane="B2A2_0" departPos="5.10" departSpeed="0.00" departDelay="0.00" arrival="170.00" arrivalLane="B0A0_0" arrivalPos="133.20" arrivalSpeed="11.80" duration="145.00" routeLength="701.66" waitingTime="51.00" waitingCount="5" stopTime="0.00" timeLoss="83.65" rerouteNo="0" devices="tripinfo_25" vType="DEFAULT_VEHTYPE" speedFactor="0.87" vaporized=""/>
    <tripinfo id="86" depart="88.00" departLane="B3B2_0" departPos="5.10" departSpeed="0.00" departDelay="2.00" arrival="171.00" arrivalLane="C3D3_1" arrivalPos="133.20" arrivalSpeed="12.72" duration="83.00" routeLength="568.59" waitingTime="25.00" waitingCount="2" stopTime="0.00" timeLoss="40.18" rerouteNo="0" devices="tripinfo_86" vType="DEFAULT_VEHTYPE" speedFactor="1.00" vaporized=""/>
    <tripinfo id="77" depart="77.00" departLane="A2A1_0" departPos="5.10" departSpeed="0.00" departDelay="0.00" arrival="172.00" arrivalLane="B0A0_1" arrivalPos="133.20" arrivalSpeed="12.94" duration="95.00" routeLength="558.27" waitingTime="12.00" waitingCount="5" stopTime="0.00" timeLoss="51.23" rerouteNo="0" devices="tripinfo_77" vType="DEFAULT_VEHTYPE" speedFactor="0.98" vaporized=""/>
    <tripinfo id="96" depart="97.00" departLane="B0B1_0" departPos="5.10" departSpeed="0.00" departDelay="1.00" arrival="173.00" arrivalLane="D2D1_1" arrivalPos="129.20" arrivalSpeed="13.86" duration="76.00" routeLength="705.72" waitingTime="5.00" waitingCount="2" stopTime="0.00" timeLoss="23.74" rerouteNo="0" devices="tripinfo_96" vType="DEFAULT_VEHTYPE" speedFactor="1.01" vaporized=""/>
    <tripinfo id="98" depart="98.00" departLane="C0D0_0" departPos="5.10" departSpeed="0.00" departDelay="0.00" arrival="175.00" arrivalLane="A1A0_1" arrivalPos="133.20" arrivalSpeed="15.19" duration="77.00" routeLength="875.30" waitingTime="0.00" waitingCount="0" stopTime="0.00" timeLoss="18.58" rerouteNo="0" devices="tripinfo_98" vType="DEFAULT_VEHTYPE" speedFactor="1.12" vaporized=""/>
    <tripinfo id="151" depart="151.00" departLane="D1C1_0" departPos="5.10" departSpeed="0.00" departDelay="0.00" arrival="175.00" arrivalLane="C1B1_0" arrivalPos="129.20" arrivalSpeed="13.76" duration="24.00" routeLength="274.10" waitingTime="0.00" waitingCount="0" stopTime="0.00" timeLoss="3.89" rerouteNo="0" devices="tripinfo_151" vType="DEFAULT_VEHTYPE" speedFactor="1.00" vaporized=""/>
    <tripinfo id="54" depart="54.00" departLane="B3A3_0" departPos="5.10" departSpeed="0.00" departDelay="0.00" arrival="176.00" arrivalLane="D2D3_1" arrivalPos="133.20" arrivalSpeed="13.15" duration="122.00" routeLength="875.30" waitingTime="34.00" waitingCount="3" stopTime="0.00" timeLoss="57.47" rerouteNo="0" devices="tripinfo_54" vType="DEFAULT_VEHTYPE" speedFactor="1.00" vaporized=""/>
    <tripinfo id="4" depart="4.00" departLane="B2C2_0" departPos="5.10" departSpeed="0.00" departDelay="0.00" arrival="177.00" arrivalLane="A0B0_0" arrivalPos="133.20" arrivalSpeed="7.58" duration="173.00" routeLength="849.21" waitingTime="85.00" waitingCount="3" stopTime="0.00" timeLoss="111.21" rerouteNo="0" devices="tripinfo_4" vType="DEFAULT_VEHTYPE" speedFactor="1.03" vaporized=""/>
    <tripinfo id="63" depart="65.00" departLane="A0A1_0" departPos="5.10" departSpeed="0.00" departDelay="2.00" arrival="179.00" arrivalLane="D2D1_0" arrivalPos="129.20" arrivalSpeed="12.82" duration="114.00" routeLength="854.56" waitingTime="13.00" waitingCount="3" stopTime="0.00" timeLoss="50.28" rerouteNo="0" devices="tripinfo_63" vType="DEFAULT_VEHTYPE" speedFactor="0.99" vaporized=""/>
    <tripinfo id="167" depart="167.00" departLane="D1D0_0" departPos="5.10" departSpeed="0.00" departDelay="0.00" arrival="181.00" arrivalLane="D1D0_1" arrivalPos="133.20" arrivalSpeed="9.76" duration="14.00" routeLength="128.10" waitingTime="0.00" waitingCount="0" stopTime="0.00" timeLoss="4.67" rerouteNo="0" devices="tripinfo_167" vType="DEFAULT_VEHTYPE" speedFactor="1.03" vaporized=""/>
    <tripinfo id="40" depart="40.00" departLane="C0D0_0" departPos="5.10" departSpeed="0.00" departDelay="0.00" arrival="183.00" arrivalLane="B0C0_0" arrivalPos="129.20" arrivalSpeed="6.20" duration="143.00" routeLength="869.85" waitingTime="46.00" waitingCount="4" stopTime="0.00" timeLoss="79.43" rerouteNo="0" devices="tripinfo_40" vType="DEFAULT_VEHTYPE" speedFactor="1.03" vaporized=""/>
    <tripinfo id="56" depart="62.00" departLane="C0B0_0" departPos="5.10" departSpeed="0.00" departDelay="6.00" arrival="183.00" arrivalLane="A3A2_1" arrivalPos="133.20" arrivalSpeed="4.59" duration="121.00" routeLength="860.98" waitingTime="24.00" waitingCount="3" stopTime="0.00" timeLoss="49.74" rerouteNo="0" devices="tripinfo_56" vType="DEFAULT_VEHTYPE" speedFactor="0.90" vaporized=""/>
    <tripinfo id="61" depart="61.00" departLane="C3D3_0" departPos="5.10" departSpeed="0.00" departDelay="0.00" arrival="183.00" arrivalLane="C0C1_0" arrivalPos="129.20" arrivalSpeed="5.67" duration="122.00" routeLength="841.89" waitingTime="38.00" waitingCount="2" stopTime="0.00" timeLoss="67.13" rerouteNo="0" devices="tripinfo_61" vType="DEFAULT_VEHTYPE" speedFactor="1.12" vaporized=""/>
    <tripinfo id="93" depart="93.00" departLane="D1D0_0" departPos="5.10" departSpeed="0.00" departDelay="0.00" arrival="184.00" arrivalLane="B0B1_0" arrivalPos="129.20" arrivalSpeed="6.81" duration="91.00" routeLength="552.11" waitingTime="30.00" waitingCount="1" stopTime="0.00" timeLoss="46.55" rerouteNo="0" devices="tripinfo_93" vType="DEFAULT_VEHTYPE" speedFactor="0.92" vaporized=""/>
    <tripinfo id="62" depart="62.00" departLane="A0A1_0" departPos="5.10" departSpeed="0.00" departDelay="0.00" arrival="185.00" arrivalLane="B1B2_1" arrivalPos="129.20" arrivalSpeed="4.94" duration="123.00" routeLength="414.88" waitingTime="55.00" waitingCount="6" stopTime="0.00" timeLoss="92.08" rerouteNo="0" devices="tripinfo_62" vType="DEFAULT_VEHTYPE" speedFactor="1.02" vaporized=""/>
    <tripinfo id="126" depart="126.00" departLane="A1A2_0" departPos="5.10" departSpeed="0.00" departDelay="0.00" arrival="185.00" arrivalLane="B3A3_1" arrivalPos="133.20" arrivalSpeed="14.02" duration="59.00" routeLength="563.43" waitingTime="7.00" waitingCount="1" stopTime="0.00" timeLoss="17.34" rerouteNo="0" devices="tripinfo_126" vType="DEFAULT_VEHTYPE" speedFactor="1.03" vaporized=""/>
    <tripinfo id="48" depart="48.00" departLane="D3D2_0" departPos="5.10" departSpeed="0.00" departDelay="0.00" arrival="186.00" arrivalLane="C0C1_0" arrivalPos="129.20" arrivalSpeed="8.15" duration="138.00" routeLength="706.11" waitingTime="51.00" waitingCount="2" stopTime="0.00" timeLoss="77.90" rerouteNo="0" devices="tripinfo_48" vType="DEFAULT_VEHTYPE" speedFactor="0.88" vaporized=""/>
    <tripinfo id="83" depart="83.00" departLane="B0B1_0" departPos="5.10" departSpeed="0.00" departDelay="0.00" arrival="186.00" arrivalLane="C2C1_1" arrivalPos="129.20" arrivalSpeed="7.94" duration="103.00" routeLength="550.56" waitingTime="39.00" waitingCount="2" stopTime="0.00" timeLoss="60.53" rerouteNo="0" devices="tripinfo_83" vType="DEFAULT_VEHTYPE" speedFactor="0.97" vaporized=""/>
    <tripinfo id="22" depart="22.00" departLane="A1A2_0" departPos="5.10" departSpeed="0.00" departDelay="0.00" arrival="187.00" arrivalLane="B0B1_0" arrivalPos="129.20" arrivalSpeed="3.50" duration="165.00" routeLength="977.02" waitingTime="59.00" waitingCount="4" stopTime="0.00" timeLoss="90.05" rerouteNo="0" devices="tripinfo_22" vType="DEFAULT_VEHTYPE" speedFactor="0.97" vaporized=""/>