<?xml version="1.0" encoding="UTF-8"?>

<!-- generated on 2024-03-14 20:54:58 by Eclipse SUMO GUI Version 1.19.0
<configuration xmlns:xsi="http://www.w3.org/2001/XMLSchema-instance" xsi:noNamespaceSchemaLocation="http://sumo.dlr.de/xsd/sumoConfiguration.xsd">

    <input>
        <net-file value="road.net.xml"/>
        <route-files value="trips.trips.xml"/>
        <additional-files value="dump_10.add.xml"/>
    </input>

    <output>
        <summary-output value="summary_10.xml"/>
        <tripinfo-output value="tripinfo.xml"/>
        <vehroute-output value="vehroutes_10.xml"/>
        <vehroute-output.exit-times value="False"/>
        <vehroute-output.last-route value="False"/>
        <vehroute-output.sorted value="False"/>
    </output>

    <time>
        <begin value="0"/>
    </time>

    <processing>
        <route-steps value="2000"/>
        <time-to-teleport value="-1"/>
    </processing>

    <routing>
        <routing-algorithm value="astar"/>
        <device.rerouting.probability value="1"/>
        <device.rerouting.period value="25"/>
        <device.rerouting.adaptation-interval value="1"/>
        <device.rerouting.with-taz value="False"/>
    </routing>

    <report>
        <verbose value="True"/>
        <no-warnings value="True"/>
    </report>

    <traci_server>
        <remote-port value="43397"/>
    </traci_server>

</configuration>
-->

<routes xmlns:xsi="http://www.w3.org/2001/XMLSchema-instance" xsi:noNamespaceSchemaLocation="http://sumo.dlr.de/xsd/routes_file.xsd">
    <vehicle id="13" depart="13.00" arrival="25.00">
        <route edges="A1A0"/>
    </vehicle>

    <vehicle id="6" depart="6.00" arrival="31.00">
        <route edges="A0A1 A1B1"/>
    </vehicle>

    <vehicle id="7" depart="7.00" arrival="35.00">
        <route edges="B2B1 B1C1"/>
    </vehicle>

    <vehicle id="1" depart="1.00" arrival="43.00">
        <route edges="A2B2 B2A2 A2A1"/>
    </vehicle>

    <vehicle id="2" depart="2.00" arrival="58.00">
        <route edges="C0B0 B0B1 B1B2 B2C2"/>
    </vehicle>

    <vehicle id="11" depart="11.00" arrival="58.00">
        <route edges="B0B1 B1A1 A1A2"/>
    </vehicle>

    <vehicle id="5" depart="5.00" arrival="61.00">
        <route edges="A2A1 A1B1 B1B2"/>
    </vehicle>

    <vehicle id="10" depart="12.00" arrival="69.00">
        <route edges="C1B1 B1B2 B2C2"/>
    </vehicle>

    <vehicle id="21" depart="21.00" arrival="69.00">
        <route edges="A2A1 A1A2 A2B2"/>
    </vehicle>

    <vehicle id="0" depart="0.00" arrival="73.00">
        <route edges="B2B1 B1B0 B0A0 A0A1"/>
    </vehicle>

    <vehicle id="18" depart="18.00" arrival="76.00">
        <route edges="C1B1 B1B2 B2A2"/>
    </vehicle>

    <vehicle id="46" depart="51.00" arrival="76.00">
        <route edges="C1B1 B1A1"/>
    </vehicle>

    <vehicle id="43" depart="43.00" arrival="80.00">
        <route edges="C2C1 C1B1 B1B2"/>
    </vehicle>

    <vehicle id="31" depart="31.00" arrival="81.00">
        <route edges="B1C1 C1B1 B1B2 B2C2"/>
    </vehicle>

    <vehicle id="28" depart="28.00" arrival="82.00">
        <route edges="A1B1 B1C1 C1C0 C0B0"/>
    </vehicle>

    <vehicle id="48" depart="48.00" arrival="91.00">
        <route edges="C2C1 C1B1 B1B2"/>
    </vehicle>

    <vehicle id="15" depart="15.00" arrival="93.00">
        <route edges="C1B1 B1C1 C1C0 C0B0"/>
    </vehicle>

    <vehicle id="16" depart="16.00" arrival="93.00">
        <route edges="B1B2 B2C2 C2C1"/>
    </vehicle>

    <vehicle id="24" depart="24.00" arrival="93.00">
        <route edges="B2B1 B1B0 B0B1"/>
    </vehicle>

    <vehicle id="25" depart="25.00" arrival="93.00">
        <route edges="B0B1 B1B2 B2A2 A2A1"/>
    </vehicle>

    <vehicle id="44" depart="44.00" arrival="93.00">
        <route edges="A1A0 A0B0"/>
    </vehicle>

    <vehicle id="52" depart="52.00" arrival="93.00">
        <route edges="A2B2 B2B1"/>
    </vehicle>

    <vehicle id="66" depart="67.00" arrival="94.00">
        <route edges="C1C2 C2B2"/>
    </vehicle>

    <vehicle id="4" depart="4.00" arrival="95.00">
        <route edges="B1A1 A1B1 B1B0 B0A0 A0A1"/>
    </vehicle>

    <vehicle id="12" depart="12.00" arrival="95.00">
        <route edges="C2B2 B2B1 B1B0 B0B1"/>
    </vehicle>

    <vehicle id="79" depart="79.00" arrival="96.00">
        <route edges="A2A1"/>
    </vehicle>

    <vehicle id="20" depart="20.00" arrival="100.00">
        <route edges="B2C2 C2C1 C1B1 B1A1 A1A0 A0B0"/>
    </vehicle>

    <vehicle id="9" depart="9.00" arrival="101.00">
        <route edges="C1B1 B1B0 B0A0 A0A1"/>
    </vehicle>

    <vehicle id="19" depart="19.00" arrival="102.00">
        <route edges="C1C0 C0B0 B0B1 B1C1"/>
    </vehicle>

    <vehicle id="40" depart="40.00" arrival="103.00">
        <route edges="B1C1 C1B1 B1A1 A1A2 A2B2"/>
    </vehicle>

    <vehicle id="3" depart="3.00" arrival="104.00">
        <route edges="C1C2 C2B2 B2A2 A2A1 A1A0"/>
    </vehicle>

    <vehicle id="8" depart="8.00" arrival="104.00">
        <route edges="A2A1 A1A2 A2B2 B2A2"/>
    </vehicle>

    <vehicle id="30" depart="30.00" arrival="105.00">
        <route edges="C2C1 C1B1 B1B2 B2B1"/>
    </vehicle>

    <vehicle id="49" depart="51.00" arrival="106.00">
        <route edges="C2C1 C1C0"/>
    </vehicle>

    <vehicle id="47" depart="47.00" arrival="108.00">
        <route edges="A0B0 B0C0"/>
    </vehicle>

    <vehicle id="70" depart="70.00" arrival="109.00">
        <route edges="B1B0 B0B1 B1C1"/>
    </vehicle>

    <vehicle id="32" depart="32.00" arrival="117.00">
        <route edges="C1C0 C0B0 B0C0 C0C1"/>
    </vehicle>

    <vehicle id="34" depart="34.00" arrival="117.00">
        <route edges="B0A0 A0A1 A1A2 A2B2"/>
    </vehicle>

    <vehicle id="26" depart="26.00" arrival="119.00">
        <route edges="A2B2 B2C2 C2C1 C1C2 C2B2"/>
    </vehicle>

    <vehicle id="59" depart="59.00" arrival="120.00">
        <route edges="B2A2 A2A1 A1A2"/>
    </vehicle>

    <vehicle id="39" depart="39.00" arrival="123.00">
        <route edges="A2B2 B2A2 A2A1"/>
    </vehicle>

    <vehicle id="68" depart="68.00" arrival="125.00">
        <route edges="A0B0 B0C0 C0C1"/>
    </vehicle>

    <vehicle id="99" depart="101.00" arrival="125.00">
        <route edges="C2C1 C1C0"/>
    </vehicle>

    <vehicle id="71" depart="71.00" arrival="133.00">
        <route edges="A2B2 B2C2 C2C1 C1C0"/>
    </vehicle>

    <vehicle id="84" depart="87.00" arrival="133.00">
        <route edges="A2A1 A1A2"/>
    </vehicle>

    <vehicle id="119" depart="120.00" arrival="134.00">
        <route edges="B2A2"/>
    </vehicle>

    <vehicle id="73" depart="73.00" arrival="135.00">
        <route edges="B1B2 B2C2 C2C1 C1C0 C0B0"/>
    </vehicle>

    <vehicle id="57" depart="58.00" arrival="136.00">
        <route edges="C1C2 C2B2 B2C2 C2C1 C1C0"/>
    </vehicle>

    <vehicle id="58" depart="58.00" arrival="136.00">
        <route edges="B0A0 A0A1 A1A2 A2B2 B2B1"/>
    </vehicle>

    <vehicle id="65" depart="73.00" arrival="136.00">
        <route edges="B0A0 A0A1 A1A0 A0B0"/>
    </vehicle>

    <vehicle id="38" depart="39.00" arrival="138.00">
        <route edges="C1C2 C2B2 B2B1 B1B0"/>
    </vehicle>

    <vehicle id="42" depart="42.00" arrival="139.00">
        <route edges="B0C0 C0C1 C1C2 C2B2 B2A2 A2A1"/>
    </vehicle>

    <vehicle id="106" depart="106.00" arrival="139.00">
        <route edges="B1A1"/>
    </vehicle>

    <vehicle id="85" depart="85.00" arrival="141.00">
        <route edges="C2B2 B2B1 B1C1"/>
    </vehicle>

    <vehicle id="100" depart="104.00" arrival="142.00">
        <route edges="C2C1 C1C2 C2B2"/>
    </vehicle>

    <vehicle id="117" depart="117.00" arrival="142.00">
        <route edges="A2A1 A1A0"/>
    </vehicle>

    <vehicle id="127" depart="127.00" arrival="142.00">
        <route edges="C2C1"/>
    </vehicle>

    <vehicle id="67" depart="67.00" arrival="143.00">
        <route edges="A1A0 A0B0 B0B1 B1B0"/>
    </vehicle>

    <vehicle id="130" depart="130.00" arrival="143.00">
        <route edges="C1C2"/>
    </vehicle>

    <vehicle id="53" depart="53.00" arrival="144.00">
        <route edges="A1A0 A0B0 B0B1 B1A1"/>
    </vehicle>

    <vehicle id="72" depart="72.00" arrival="144.00">
        <route edges="B1A1 A1A2 A2B2 B2A2 A2A1"/>
    </vehicle>

    <vehicle id="51" depart="51.00" arrival="147.00">
        <route edges="B2C2 C2C1 C1B1 B1B2"/>
    </vehicle>

    <vehicle id="88" depart="88.00" arrival="148.00">
        <route edges="A1A0 A0B0 B0B1 B1A1"/>
    </vehicle>

    <vehicle id="107" depart="107.00" arrival="148.00">
        <route edges="C2B2 B2C2 C2C1"/>
    </vehicle>

    <vehicle id="60" depart="60.00" arrival="149.00">
        <route edges="C0C1 C1B1 B1B2"/>
    </vehicle>

    <vehicle id="64" depart="64.00" arrival="149.00">
        <route edges="C1C2 C2B2 B2C2 C2C1 C1B1"/>
    </vehicle>

    <vehicle id="74" depart="74.00" arrival="149.00">
        <route edges="A1B1 B1B0 B0A0"/>
    </vehicle>

    <vehicle id="37" depart="37.00" arrival="151.00">
        <route edges="B2B1 B1B0 B0C0"/>
    </vehicle>

    <vehicle id="14" depart="14.00" arrival="152.00">
        <route edges="C1C0 C0B0 B0B1 B1B2 B2A2"/>
    </vehicle>

    <vehicle id="17" depart="17.00" arrival="153.00">
        <route edges="B0C0 C0C1 C1B1 B1C1"/>
    </vehicle>

    <vehicle id="36" depart="36.00" arrival="153.00">
        <route edges="C1C2 C2B2 B2B1 B1B0 B0A0"/>
    </vehicle>

    <vehicle id="90" depart="90.00" arrival="153.00">
        <route edges="C0B0 B0B1 B1B2 B2C2"/>
    </vehicle>

    <vehicle id="29" depart="29.00" arrival="154.00">
        <route edges="A1A2 A2B2 B2B1 B1B0 B0C0"/>
    </vehicle>

    <vehicle id="61" depart="63.00" arrival="154.00">
        <route edges="C0C1 C1B1 B1B2"/>
    </vehicle>

    <vehicle id="78" depart="78.00" arrival="154.00">
        <route edges="B0B1 B1B2 B2A2"/>
    </vehicle>

    <vehicle id="94" depart="102.00" arrival="154.00">
        <route edges="A1B1 B1A1"/>
    </vehicle>

    <vehicle id="56" depart="60.00" arrival="158.00">
        <route edges="B1B2 B2B1 B1A1 A1B1"/>
    </vehicle>

    <vehicle id="54" depart="54.00" arrival="162.00">
        <route edges="B1A1 A1B1 B1C1 C1C2 C2B2"/>
    </vehicle>

    <vehicle id="76" depart="76.00" arrival="162.00">
        <route edges="B1A1 A1B1 B1B2"/>
    </vehicle>

    <vehicle id="108" depart="108.00" arrival="162.00">
        <route edges="B1C1 C1C0 C0B0"/>
    </vehicle>

    <vehicle id="27" depart="27.00" arrival="163.00">
        <route edges="B2B1 B1B2 B2A2"/>
    </vehicle>

    <vehicle id="87" depart="87.00" arrival="164.00">
        <route edges="C1B1 B1A1 A1B1"/>
    </vehicle>

    <vehicle id="110" depart="110.00" arrival="164.00">
        <route edges="C2C1 C1B1 B1C1"/>
    </vehicle>

    <vehicle id="89" depart="89.00" arrival="165.00">
        <route edges="B1A1 A1B1 B1B0"/>
    </vehicle>

    <vehicle id="62" depart="62.00" arrival="166.00">
        <route edges="A0A1 A1B1 B1B0 B0A0"/>
    </vehicle>

    <vehicle id="152" depart="153.00" arrival="166.00">
        <route edges="A1A2"/>
    </vehicle>

    <vehicle id="69" depart="69.00" arrival="168.00">
        <route edges="C0C1 C1B1 B1A1 A1A2"/>
    </vehicle>

    <vehicle id="41" depart="41.00" arrival="170.00">
        <route edges="B2A2 A2A1 A1B1 B1C1 C1C2"/>
    </vehicle>

    <vehicle id="81" depart="82.00" arrival="172.00">
        <route edges="A2A1 A1B1 B1C1 C1C2"/>
    </vehicle>

    <vehicle id="91" depart="91.00" arrival="172.00">
        <route edges="C2C1 C1B1 B1A1 A1A0"/>
    </vehicle>

    <vehicle id="63" depart="65.00" arrival="176.00">
        <route edges="A0A1 A1B1 B1C1 C1C2 C2B2"/>
    </vehicle>

    <vehicle id="135" depart="139.00" arrival="180.00">
        <route edges="C1B1 B1B0 B0A0"/>
    </vehicle>

    <vehicle id="167" depart="167.00" arrival="180.00">
        <route edges="C1C0"/>
    </vehicle>

    <vehicle id="23" depart="23.00" arrival="183.00">
        <route edges="A1A0 A0B0 B0A0 A0A1 A1A2 A2B2"/>
    </vehicle>

    <vehicle id="33" depart="33.00" arrival="183.00">
        <route edges="A2A1 A1B1 B1B0 B0A0 A0A1"/>
    </vehicle>

    <vehicle id="111" depart="111.00" arrival="183.00">
        <route edges="B1C1 C1C0 C0B0"/>
    </vehicle>

    <vehicle id="22" depart="22.00" arrival="184.00">
        <route edges="A0B0 B0B1 B1B2 B2A2 A2A1"/>
    </vehicle>

    <vehicle id="95" depart="95.00" arrival="185.00">
        <route edges="B1A1 A1A2 A2B2"/>
    </vehicle>

    <vehicle id="122" depart="122.00" arrival="185.00">
        <route edges="A1B1 B1C1 C1C0 C0B0"/>
    </vehicle>

    <vehicle id="77" depart="77.00" arrival="186.00">
        <route edges="A1A0 A0B0 B0B1 B1B2 B2A2 A2A1"/>
    </vehicle>

    <vehicle id="35" depart="36.00" arrival="187.00">
        <route edges="A2A1 A1B1 B1C1 C1C2 C2B2"/>
    </vehicle>

    <vehicle id="55" depart="55.00" arrival="187.00">
        <routeDistribution>
            <route replacedOnEdge="C2B2" replacedOnIndex="1" reason="device.rerouting" replacedAtTime="80.00" probability="0" edges="C1C2 C2B2 B2A2 A2A1 A1A2 A2B2"/>
            <route edges="C1C2 C2B2 B2B1 B1A1 A1A2 A2B2"/>
        </routeDistribution>
    </vehicle>

    <vehicle id="86" depart="90.00" arrival="187.00">
        <route edges="B1B0 B0C0 C0C1"/>
    </vehicle>

    <vehicle id="97" depart="100.00" arrival="187.00">
        <route edges="B1A1 A1B1 B1C1 C1C0"/>
    </vehicle>

    <vehicle id="50" depart="51.00" arrival="188.00">
        <route edges="A0A1 A1B1 B1C1 C1C0 C0B0"/>
    </vehicle>

    <vehicle id="75" depart="75.00" arrival="188.00">
        <route edges="C2C1 C1B1 B1B2 B2B1"/>
    </vehicle>

    <vehicle id="96" depart="96.00" arrival="188.00">
        <route edges="A2A1 A1B1 B1C1 C1C2 C2B2"/>
    </vehicle>

    <vehicle id="45" depart="47.00" arrival="190.00">
        <route edges="A1A0 A0B0 B0B1 B1B2 B2B1"/>
    </vehicle>

    <vehicle id="105" depart="107.00" arrival="190.00">
        <route edges="A2B2 B2B1 B1B0 B0C0 C0C1"/>
    </vehicle>

    <vehicle id="80" depart="80.00" arrival="191.00">
        <route edges="A0B0 B0B1 B1B2 B2B1"/>
    </vehicle>

    <vehicle id="83" depart="85.00" arrival="194.00">
        <route edges="A2A1 A1A2 A2B2 B2C2"/>
    </vehicle>

    <vehicle id="98" depart="100.00" arrival="194.00">
        <route edges="B1C1 C1B1 B1A1 A1A0 A0B0"/>
    </vehicle>

    <vehicle id="101" depart="102.00" arrival="195.00">
        <route edges="C1C0 C0B0 B0A0 A0A1 A1A2"/>
    </vehicle>

    <vehicle id="113" depart="113.00" arrival="195.00">
        <route edges="B1B2 B2C2 C2C1 C1C0"/>
    </vehicle>

    <vehicle id="157" depart="157.00" arrival="195.00">
        <route edges="C0C1 C1C2"/>
    </vehicle>

    <vehicle id="125" depart="125.00" arrival="196.00">
        <route edges="B0A0 A0A1 A1B1 B1B0 B0C0 C0C1"/>
    </vehicle>

    <vehicle id="144" depart="146.00" arrival="197.00">
        <route edges="B1A1 A1A2 A2B2"/>
    </vehicle>

    <vehicle id="92" depart="92.00" arrival="198.00">
        <route edges="B0C0 C0C1 C1C0 C0B0 B0B1"/>
    </vehicle>

    <vehicle id="156" depart="156.00" arrival="198.00">
        <route edges="A2A1 A1A0"/>
    </vehicle>

    <vehicle id="142" depart="144.00" arrival="203.00">
        <route edges="B1B0 B0C0 C0C1 C1C2"/>
    </vehicle>

    <vehicle id="139" depart="142.00" arrival="204.00">
        <route edges="A2B2 B2A2"/>
    </vehicle>

    <vehicle id="180" depart="180.00" arrival="204.00">
        <route edges="C0B0 B0A0"/>
    </vehicle>

    <vehicle id="114" depart="114.00" arrival="207.00">
        <route edges="A1A2 A2B2 B2C2 C2C1"/>
    </vehicle>

    <vehicle id="120" depart="120.00" arrival="207.00">
        <route edges="B1A1 A1A2 A2B2 B2A2"/>
    </vehicle>

    <vehicle id="155" depart="155.00" arrival="207.00">
        <route edges="C1C2 C2B2 B2A2 A2A1"/>
    </vehicle>

    <vehicle id="118" depart="118.00" arrival="210.00">
        <route edges="C1C2 C2B2 B2A2 A2A1"/>
    </vehicle>

    <vehicle id="82" depart="82.00" arrival="211.00">
        <route edges="C1C0 C0B0 B0A0 A0A1 A1A0 A0B0"/>
    </vehicle>

    <vehicle id="116" depart="117.00" arrival="214.00">
        <route edges="B2A2 A2A1 A1A2 A2B2 B2C2"/>
    </vehicle>

    <vehicle id="121" depart="121.00" arrival="216.00">
        <route edges="B1B2 B2C2 C2C1 C1C2 C2B2"/>
    </vehicle>

    <vehicle id="149" depart="149.00" arrival="217.00">
        <route edges="A0B0 B0C0 C0C1 C1C2"/>
    </vehicle>

    <vehicle id="190" depart="190.00" arrival="217.00">
        <route edges="C0B0 B0A0"/>
    </vehicle>

    <vehicle id="143" depart="143.00" arrival="218.00">
        <route edges="C1C0 C0B0 B0A0 A0A1 A1A0"/>
    </vehicle>

    <vehicle id="123" depart="123.00" arrival="219.00">
        <route edges="A2A1 A1A0 A0B0 B0C0"/>
    </vehicle>

    <vehicle id="124" depart="126.00" arrival="219.00">
        <route edges="B2C2 C2C1 C1C0 C0B0 B0A0"/>
    </vehicle>

    <vehicle id="176" depart="176.00" arrival="222.00">
        <route edges="C2B2 B2A2 A2A1 A1A0"/>
    </vehicle>

    <vehicle id="158" depart="158.00" arrival="226.00">
        <route edges="B0C0 C0C1 C1C2 C2B2 B2A2"/>
    </vehicle>

    <vehicle id="194" depart="195.00" arrival="226.00">
        <route edges="C2B2 B2C2"/>
    </vehicle>

    <vehicle id="147" depart="157.00" arrival="228.00">
        <route edges="C0B0 B0B1 B1C1"/>
    </vehicle>

    <vehicle id="150" depart="150.00" arrival="228.00">
        <route edges="C1C2 C2B2 B2B1 B1C1"/>
    </vehicle>

    <vehicle id="171" depart="175.00" arrival="228.00">
        <route edges="A0A1 A1B1"/>
    </vehicle>

    <vehicle id="214" depart="214.00" arrival="229.00">
        <route edges="C0C1"/>
    </vehicle>

    <vehicle id="151" depart="159.00" arrival="230.00">
        <route edges="C1C0 C0B0 B0B1 B1C1"/>
    </vehicle>

    <vehicle id="140" depart="140.00" arrival="233.00">
        <route edges="C0B0 B0A0 A0A1 A1B1"/>
    </vehicle>

    <vehicle id="199" depart="199.00" arrival="233.00">
        <route edges="B2B1 B1B0"/>
    </vehicle>

    <vehicle id="129" depart="139.00" arrival="238.00">
        <route edges="A2B2 B2C2 C2C1 C1C2 C2B2"/>
    </vehicle>

    <vehicle id="131" depart="131.00" arrival="238.00">
        <route edges="B0B1 B1A1 A1A2"/>
    </vehicle>

    <vehicle id="133" depart="133.00" arrival="238.00">
        <route edges="B2A2 A2A1 A1A2 A2B2 B2C2 C2C1"/>
    </vehicle>

    <vehicle id="154" depart="154.00" arrival="238.00">
        <route edges="C1B1 B1C1 C1C0"/>
    </vehicle>

    <vehicle id="109" depart="109.00" arrival="239.00">
        <route edges="A1A2 A2B2 B2B1 B1B0 B0A0"/>
    </vehicle>

    <vehicle id="169" depart="169.00" arrival="239.00">
        <route edges="B1B0 B0A0"/>
    </vehicle>

    <vehicle id="174" depart="174.00" arrival="241.00">
        <route edges="B2B1 B1B0 B0C0"/>
    </vehicle>

    <vehicle id="197" depart="197.00" arrival="241.00">
        <route edges="A0A1 A1A2 A2B2"/>
    </vehicle>

    <vehicle id="132" depart="132.00" arrival="243.00">
        <route edges="C1C0 C0B0 B0B1 B1B2 B2C2"/>
    </vehicle>

    <vehicle id="159" depart="159.00" arrival="243.00">
        <route edges="A1A2 A2B2 B2C2 C2C1 C1C2 C2B2"/>
    </vehicle>

    <vehicle id="137" depart="139.00" arrival="244.00">
        <routeDistribution>
            <route replacedOnEdge="A2B2" replacedOnIndex="1" reason="device.rerouting" replacedAtTime="189.00" probability="0" edges="A1A2 A2B2 B2A2 A2A1 A1A0"/>
            <route edges="A1A2 A2B2 B2B1 B1A1 A1A0"/>
        </routeDistribution>
    </vehicle>

    <vehicle id="148" depart="149.00" arrival="244.00">
        <route edges="B1A1 A1A0 A0B0 B0A0 A0A1"/>
    </vehicle>

    <vehicle id="188" depart="188.00" arrival="244.00">
        <route edges="B2B1 B1B0 B0A0"/>
    </vehicle>

    <vehicle id="104" depart="106.00" arrival="245.00">
        <route edges="B0C0 C0C1 C1C2 C2B2 B2C2 C2C1"/>
    </vehicle>

    <vehicle id="112" depart="112.00" arrival="245.00">
        <route edges="A0B0 B0B1 B1B2 B2A2"/>
    </vehicle>

    <vehicle id="115" depart="115.00" arrival="245.00">
        <route edges="A0B0 B0A0 A0A1 A1B1"/>
    </vehicle>

    <vehicle id="183" depart="184.00" arrival="245.00">
        <route edges="A2B2 B2C2 C2C1 C1C0 C0B0"/>
    </vehicle>

    <vehicle id="186" depart="187.00" arrival="245.00">
        <route edges="C0B0 B0B1 B1B2 B2C2"/>
    </vehicle>

    <vehicle id="175" depart="176.00" arrival="247.00">
        <route edges="C2C1 C1B1 B1B2"/>
    </vehicle>

    <vehicle id="220" depart="220.00" arrival="247.00">
        <route edges="B2C2 C2C1"/>
    </vehicle>

    <vehicle id="141" depart="144.00" arrival="249.00">
        <route edges="B2B1 B1A1 A1A2 A2B2"/>
    </vehicle>

    <vehicle id="134" depart="134.00" arrival="253.00">
        <route edges="B2B1 B1B0 B0A0 A0A1"/>
    </vehicle>

    <vehicle id="208" depart="208.00" color="green" arrival="255.00">
        <route edges="A2A1 A1B1 B1B0"/>
    </vehicle>

    <vehicle id="153" depart="157.00" arrival="256.00">
        <route edges="B0A0 A0A1 A1B1 B1C1 C1C2"/>
    </vehicle>

    <vehicle id="146" depart="147.00" arrival="257.00">
        <route edges="B2B1 B1A1 A1A2 A2B2"/>
    </vehicle>

    <vehicle id="172" depart="172.00" arrival="258.00">
        <route edges="B0A0 A0A1 A1B1 B1C1 C1C0"/>
    </vehicle>

    <vehicle id="181" depart="181.00" color="green" arrival="259.00">
        <route edges="B2A2 A2A1 A1B1 B1B2"/>
    </vehicle>

    <vehicle id="196" depart="196.00" arrival="261.00">
        <route edges="B0A0 A0A1 A1B1 B1C1"/>
    </vehicle>

    <vehicle id="168" depart="168.00" color="green" arrival="263.00">
        <route edges="A2A1 A1B1 B1C1 C1B1"/>
    </vehicle>

    <vehicle id="189" depart="189.00" arrival="263.00">
        <route edges="B0A0 A0A1 A1B1 B1C1 C1C0"/>
    </vehicle>

    <vehicle id="198" depart="198.00" arrival="266.00">
        <route edges="B1A1 A1B1 B1C1"/>
    </vehicle>

    <vehicle id="191" depart="192.00" arrival="268.00">
        <route edges="B0A0 A0A1 A1B1 B1B0 B0C0"/>
    </vehicle>

    <vehicle id="202" depart="202.00" arrival="268.00">
        <route edges="C1B1 B1A1 A1B1"/>
    </vehicle>

    <vehicle id="165" depart="167.00" arrival="269.00">
        <route edges="C1B1 B1A1 A1A2 A2B2"/>
    </vehicle>

    <vehicle id="173" depart="173.00" arrival="272.00">
        <route edges="C2C1 C1B1 B1A1 A1A2 A2B2"/>
    </vehicle>

    <vehicle id="136" depart="141.00" arrival="273.00">
        <route edges="B2B1 B1C1 C1C2 C2B2"/>
    </vehicle>

    <vehicle id="160" depart="162.00" arrival="273.00">
        <route edges="C1C0 C0B0 B0B1 B1B2 B2C2 C2C1"/>
    </vehicle>

    <vehicle id="162" depart="166.00" arrival="273.00">
        <route edges="A0A1 A1B1 B1C1 C1C0 C0B0"/>
    </vehicle>

    <vehicle id="187" depart="202.00" arrival="273.00">
        <route edges="B0B1 B1A1 A1A0 A0B0"/>
    </vehicle>

    <vehicle id="178" depart="182.00" arrival="274.00">
        <route edges="C2C1 C1B1 B1A1 A1A2 A2B2"/>
    </vehicle>

    <vehicle id="163" depart="165.00" arrival="275.00">
        <route edges="B0A0 A0A1 A1B1 B1C1 C1C2 C2B2"/>
    </vehicle>

    <vehicle id="145" depart="145.00" arrival="276.00">
        <routeDistribution>
            <route replacedOnEdge="A0A1" reason="device.rerouting" replacedAtTime="170.00" probability="0" edges="A0A1 A1A0 A0B0 B0C0 C0C1"/>
            <route edges="A0A1 A1B1 B1B0 B0C0 C0C1"/>
        </routeDistribution>
    </vehicle>

    <vehicle id="161" depart="163.00" arrival="276.00">
        <route edges="C1B1 B1C1 C1C2"/>
    </vehicle>

    <vehicle id="207" depart="210.00" arrival="276.00">
        <route edges="A1B1 B1B0 B0A0 A0A1"/>
    </vehicle>

    <vehicle id="204" depart="204.00" arrival="277.00">
        <route edges="B2B1 B1B0 B0B1"/>
    </vehicle>

    <vehicle id="184" depart="190.00" arrival="279.00">
        <route edges="A0A1 A1B1 B1C1 C1C2 C2B2"/>
    </vehicle>

    <vehicle id="192" depart="192.00" arrival="283.00">
        <route edges="B0C0 C0C1 C1C0 C0B0 B0A0"/>
    </vehicle>

    <vehicle id="193" depart="195.00" arrival="284.00">
        <route edges="A1A2 A2B2 B2B1 B1A1"/>
    </vehicle>

    <vehicle id="254" depart="254.00" arrival="285.00">
        <route edges="A0B0 B0C0"/>
    </vehicle>

    <vehicle id="195" depart="195.00" arrival="286.00">
        <route edges="C1C2 C2B2 B2A2"/>
    </vehicle>

    <vehicle id="201" depart="203.00" arrival="287.00">
        <route edges="B1B0 B0C0 C0C1 C1C2"/>
    </vehicle>

    <vehicle id="222" depart="222.00" arrival="288.00">
        <route edges="C1C2 C2B2 B2A2"/>
    </vehicle>

    <vehicle id="264" depart="268.00" arrival="291.00">
        <route edges="A0A1 A1A2"/>
    </vehicle>

    <vehicle id="103" depart="103.00" arrival="292.00">
        <route edges="B0C0 C0C1 C1B1 B1A1 A1A0 A0B0"/>
    </vehicle>

    <vehicle id="226" depart="228.00" arrival="294.00">
        <route edges="B1B0 B0A0 A0A1 A1A2 A2B2"/>
    </vehicle>

    <vehicle id="244" depart="244.00" arrival="294.00">
        <route edges="B1C1 C1C2 C2B2 B2A2"/>
    </vehicle>

    <vehicle id="249" depart="249.00" arrival="297.00">
        <route edges="B1B0 B0A0 A0A1 A1A2"/>
    </vehicle>

    <vehicle id="185" depart="185.00" arrival="299.00">
        <route edges="B1B2 B2C2 C2C1 C1C0 C0B0"/>
    </vehicle>

    <vehicle id="239" depart="239.00" arrival="301.00">
        <route edges="C1C0 C0B0 B0C0 C0C1"/>
    </vehicle>

    <vehicle id="265" depart="265.00" arrival="304.00">
        <route edges="A1A2 A2B2 B2C2"/>
    </vehicle>

    <vehicle id="210" depart="211.00" arrival="308.00">
        <route edges="B0C0 C0C1 C1C2 C2B2 B2B1"/>
    </vehicle>

    <vehicle id="252" depart="254.00" arrival="314.00">
        <route edges="A0A1 A1A2 A2B2 B2B1"/>
    </vehicle>

    <vehicle id="223" depart="223.00" arrival="318.00">
        <route edges="C0B0 B0B1 B1B2"/>
    </vehicle>

    <vehicle id="253" depart="253.00" arrival="318.00">
        <route edges="A1A2 A2B2 B2B1 B1B0"/>
    </vehicle>

    <vehicle id="126" depart="126.00" arrival="319.00">
        <route edges="A0B0 B0B1 B1A1"/>
    </vehicle>

    <vehicle id="138" depart="138.00" arrival="319.00">
        <route edges="A1A0 A0B0 B0B1 B1C1"/>
    </vehicle>

    <vehicle id="203" depart="203.00" arrival="320.00">
        <route edges="A1A0 A0B0 B0B1 B1B2"/>
    </vehicle>

    <vehicle id="269" depart="269.00" arrival="320.00">
        <route edges="C0B0 B0A0 A0A1 A1A0"/>
    </vehicle>

    <vehicle id="179" depart="179.00" arrival="321.00">
        <route edges="A1A0 A0B0 B0B1 B1A1"/>
    </vehicle>

    <vehicle id="257" depart="259.00" arrival="322.00">
        <route edges="C0C1 C1B1"/>
    </vehicle>

    <vehicle id="215" depart="215.00" arrival="323.00">
        <route edges="A1A0 A0B0 B0B1 B1A1"/>
    </vehicle>

    <vehicle id="209" depart="209.00" arrival="328.00">
        <route edges="C1C0 C0B0 B0A0 A0A1 A1A0 A0B0"/>
    </vehicle>

    <vehicle id="211" depart="213.00" arrival="328.00">
        <route edges="A1B1 B1B2 B2C2"/>
    </vehicle>

    <vehicle id="164" depart="165.00" arrival="329.00">
        <route edges="C1B1 B1C1 C1C0"/>
    </vehicle>

    <vehicle id="231" depart="231.00" arrival="330.00">
        <route edges="A2B2 B2B1 B1B0 B0A0"/>
    </vehicle>

    <vehicle id="242" depart="247.00" arrival="330.00">
        <route edges="C1C0 C0B0 B0C0 C0C1 C1C2 C2B2"/>
    </vehicle>

    <vehicle id="247" depart="247.00" arrival="331.00">
        <route edges="B0B1 B1B2 B2C2"/>
    </vehicle>

    <vehicle id="166" depart="166.00" arrival="332.00">
        <route edges="C0C1 C1B1 B1A1 A1A0"/>
    </vehicle>

    <vehicle id="228" depart="228.00" arrival="332.00">
        <route edges="C0C1 C1B1 B1B2"/>
    </vehicle>

    <vehicle id="276" depart="276.00" arrival="333.00">
        <route edges="A1A0 A0B0 B0C0 C0C1"/>
    </vehicle>

    <vehicle id="182" depart="185.00" arrival="337.00">
        <route edges="B0C0 C0C1 C1B1 B1C1"/>
    </vehicle>

    <vehicle id="285" depart="285.00" arrival="338.00">
        <route edges="B2C2 C2C1 C1B1 B1A1"/>
    </vehicle>

    <vehicle id="177" depart="179.00" arrival="339.00">
        <route edges="C2C1 C1B1 B1A1 A1B1"/>
    </vehicle>

    <vehicle id="219" depart="219.00" arrival="342.00">
        <route edges="B1A1 A1B1 B1C1 C1B1"/>
    </vehicle>

    <vehicle id="224" depart="224.00" arrival="342.00">
        <route edges="C1B1 B1C1"/>
    </vehicle>

    <vehicle id="205" depart="207.00" arrival="343.00">
        <route edges="C1B1 B1B0 B0C0 C0C1"/>
    </vehicle>

    <vehicle id="284" depart="287.00" arrival="343.00">
        <route edges="B2B1 B1C1 C1B1"/>
    </vehicle>

    <vehicle id="229" depart="229.00" arrival="344.00">
        <route edges="B2B1 B1A1 A1A2 A2B2"/>
    </vehicle>

    <vehicle id="218" depart="218.00" color="green" arrival="345.00">
        <route edges="A2A1 A1B1 B1C1 C1C0"/>
    </vehicle>

    <vehicle id="297" depart="297.00" arrival="345.00">
        <route edges="B0B1 B1C1 C1C2"/>
    </vehicle>

    <vehicle id="235" depart="235.00" arrival="347.00">
        <route edges="B0C0 C0C1 C1B1 B1C1"/>
    </vehicle>

    <vehicle id="248" depart="248.00" arrival="347.00">
        <route edges="B0C0 C0C1 C1B1 B1A1 A1A2"/>
    </vehicle>

    <vehicle id="287" depart="291.00" arrival="348.00">
        <route edges="A2B2 B2C2 C2C1 C1B1"/>
    </vehicle>

    <vehicle id="237" depart="240.00" arrival="349.00">
        <route edges="B1A1 A1B1 B1C1 C1C2"/>
    </vehicle>

    <vehicle id="273" depart="273.00" arrival="349.00">
        <route edges="C2B2 B2B1 B1B0 B0C0"/>
    </vehicle>

    <vehicle id="315" depart="315.00" arrival="351.00">
        <route edges="C2C1 C1B1 B1B2"/>
    </vehicle>

    <vehicle id="263" depart="263.00" arrival="354.00">
        <route edges="C2B2 B2B1 B1A1 A1B1"/>
    </vehicle>

    <vehicle id="251" depart="251.00" arrival="355.00">