<?xml version="1.0" encoding="UTF-8"?>

<!-- generated on 2024-03-13 21:10:37 by Eclipse SUMO GUI Version 1.19.0
<configuration xmlns:xsi="http://www.w3.org/2001/XMLSchema-instance" xsi:noNamespaceSchemaLocation="http://sumo.dlr.de/xsd/sumoConfiguration.xsd">

    <input>
        <net-file value="road.net.xml"/>
        <route-files value="trips.trips.xml"/>
        <additional-files value="dump_10.add.xml"/>
    </input>

    <output>
        <summary-output value="summary_10.xml"/>
        <tripinfo-output value="tripinfo.xml"/>
        <vehroute-output value="vehroutes_10.xml"/>
        <vehroute-output.exit-times value="False"/>
        <vehroute-output.last-route value="False"/>
        <vehroute-output.sorted value="False"/>
    </output>

    <time>
        <begin value="0"/>
    </time>

    <processing>
        <route-steps value="200"/>
    </processing>

    <routing>
        <routing-algorithm value="astar"/>
        <device.rerouting.probability value="1"/>
        <device.rerouting.period value="10"/>
        <device.rerouting.adaptation-interval value="1"/>
        <device.rerouting.with-taz value="False"/>
    </routing>

    <report>
        <verbose value="True"/>
        <no-warnings value="True"/>
    </report>

    <traci_server>
        <remote-port value="47181"/>
    </traci_server>

</configuration>
-->

<routes xmlns:xsi="http://www.w3.org/2001/XMLSchema-instance" xsi:noNamespaceSchemaLocation="http://sumo.dlr.de/xsd/routes_file.xsd">
    <vehicle id="13" depart="13.00" arrival="25.00">
        <route edges="A1A0"/>
    </vehicle>

    <vehicle id="6" depart="6.00" arrival="31.00">
        <route edges="A0A1 A1B1"/>
    </vehicle>

    <vehicle id="7" depart="7.00" arrival="35.00">
        <route edges="B2B1 B1C1"/>
    </vehicle>

    <vehicle id="1" depart="1.00" arrival="43.00">
        <route edges="A2B2 B2A2 A2A1"/>
    </vehicle>

    <vehicle id="2" depart="2.00" arrival="58.00">
        <route edges="C0B0 B0B1 B1B2 B2C2"/>
    </vehicle>

    <vehicle id="11" depart="11.00" arrival="58.00">
        <route edges="B0B1 B1A1 A1A2"/>
    </vehicle>

    <vehicle id="5" depart="5.00" arrival="61.00">
        <route edges="A2A1 A1B1 B1B2"/>
    </vehicle>

    <vehicle id="10" depart="12.00" arrival="69.00">
        <route edges="C1B1 B1B2 B2C2"/>
    </vehicle>

    <vehicle id="21" depart="21.00" arrival="69.00">
        <route edges="A2A1 A1A2 A2B2"/>
    </vehicle>

    <vehicle id="24" depart="24.00" arrival="75.00">
        <route edges="B2B1 B1B0 B0B1"/>
    </vehicle>

    <vehicle id="18" depart="18.00" arrival="76.00">
        <route edges="C1B1 B1B2 B2A2"/>
    </vehicle>

    <vehicle id="46" depart="51.00" arrival="76.00">
        <route edges="C1B1 B1A1"/>
    </vehicle>

    <vehicle id="12" depart="12.00" arrival="77.00">
        <route edges="C2B2 B2B1 B1B0 B0B1"/>
    </vehicle>

    <vehicle id="52" depart="52.00" arrival="78.00">
        <route edges="A2B2 B2B1"/>
    </vehicle>

    <vehicle id="43" depart="43.00" arrival="80.00">
        <route edges="C2C1 C1B1 B1B2"/>
    </vehicle>

    <vehicle id="31" depart="31.00" arrival="81.00">
        <route edges="B1C1 C1B1 B1B2 B2C2"/>
    </vehicle>

    <vehicle id="28" depart="28.00" arrival="82.00">
        <route edges="A1B1 B1C1 C1C0 C0B0"/>
    </vehicle>

    <vehicle id="30" depart="30.00" arrival="82.00">
        <route edges="C2C1 C1B1 B1B2 B2B1"/>
    </vehicle>

    <vehicle id="19" depart="19.00" arrival="84.00">
        <route edges="C1C0 C0B0 B0B1 B1C1"/>
    </vehicle>

    <vehicle id="15" depart="15.00" arrival="93.00">
        <route edges="C1B1 B1C1 C1C0 C0B0"/>
    </vehicle>

    <vehicle id="16" depart="16.00" arrival="93.00">
        <route edges="B1B2 B2C2 C2C1"/>
    </vehicle>

    <vehicle id="25" depart="25.00" arrival="93.00">
        <route edges="B0B1 B1B2 B2A2 A2A1"/>
    </vehicle>

    <vehicle id="66" depart="67.00" arrival="95.00">
        <route edges="C1C2 C2B2"/>
    </vehicle>

    <vehicle id="79" depart="79.00" arrival="95.00">
        <route edges="A2A1"/>
    </vehicle>

    <vehicle id="40" depart="40.00" arrival="103.00">
        <route edges="B1C1 C1B1 B1A1 A1A2 A2B2"/>
    </vehicle>

    <vehicle id="3" depart="3.00" arrival="104.00">
        <route edges="C1C2 C2B2 B2A2 A2A1 A1A0"/>
    </vehicle>

    <vehicle id="8" depart="8.00" arrival="104.00">
        <route edges="A2A1 A1A2 A2B2 B2A2"/>
    </vehicle>

    <vehicle id="49" depart="51.00" arrival="106.00">
        <route edges="C2C1 C1C0"/>
    </vehicle>

    <vehicle id="22" depart="22.00" arrival="116.00">
        <route edges="A0B0 B0B1 B1B2 B2A2 A2A1"/>
    </vehicle>

    <vehicle id="59" depart="59.00" arrival="117.00">
        <route edges="B2A2 A2A1 A1A2"/>
    </vehicle>

    <vehicle id="26" depart="26.00" arrival="118.00">
        <route edges="A2B2 B2C2 C2C1 C1C2 C2B2"/>
    </vehicle>

    <vehicle id="34" depart="34.00" arrival="118.00">
        <route edges="B0A0 A0A1 A1A2 A2B2"/>
    </vehicle>

    <vehicle id="39" depart="39.00" arrival="123.00">
        <route edges="A2B2 B2A2 A2A1"/>
    </vehicle>

    <vehicle id="99" depart="101.00" arrival="125.00">
        <route edges="C2C1 C1C0"/>
    </vehicle>

    <vehicle id="84" depart="86.00" arrival="126.00">
        <route edges="A2A1 A1A2"/>
    </vehicle>

    <vehicle id="119" depart="120.00" arrival="132.00">
        <route edges="B2A2"/>
    </vehicle>

    <vehicle id="71" depart="71.00" arrival="133.00">
        <route edges="A2B2 B2C2 C2C1 C1C0"/>
    </vehicle>

    <vehicle id="73" depart="73.00" arrival="134.00">
        <route edges="B1B2 B2C2 C2C1 C1C0 C0B0"/>
    </vehicle>

    <vehicle id="57" depart="58.00" arrival="137.00">
        <route edges="C1C2 C2B2 B2C2 C2C1 C1C0"/>
    </vehicle>

    <vehicle id="48" depart="48.00" arrival="138.00">
        <route edges="C2C1 C1B1 B1B2"/>
    </vehicle>

    <vehicle id="106" depart="106.00" arrival="138.00">
        <route edges="B1A1"/>
    </vehicle>

    <vehicle id="42" depart="42.00" arrival="140.00">
        <route edges="B0C0 C0C1 C1C2 C2B2 B2A2 A2A1"/>
    </vehicle>

    <vehicle id="51" depart="51.00" arrival="140.00">
        <route edges="B2C2 C2C1 C1B1 B1B2"/>
    </vehicle>

    <vehicle id="117" depart="117.00" arrival="141.00">
        <route edges="A2A1 A1A0"/>
    </vehicle>

    <vehicle id="127" depart="127.00" arrival="142.00">
        <route edges="C2C1"/>
    </vehicle>

    <vehicle id="60" depart="60.00" arrival="143.00">
        <route edges="C0C1 C1B1 B1B2"/>
    </vehicle>

    <vehicle id="100" depart="104.00" arrival="143.00">
        <route edges="C2C1 C1C2 C2B2"/>
    </vehicle>

    <vehicle id="130" depart="130.00" arrival="143.00">
        <route edges="C1C2"/>
    </vehicle>

    <vehicle id="72" depart="72.00" arrival="144.00">
        <route edges="B1A1 A1A2 A2B2 B2A2 A2A1"/>
    </vehicle>

    <vehicle id="61" depart="63.00" arrival="145.00">
        <route edges="C0C1 C1B1 B1B2"/>
    </vehicle>

    <vehicle id="107" depart="107.00" arrival="148.00">
        <route edges="C2B2 B2C2 C2C1"/>
    </vehicle>

    <vehicle id="14" depart="14.00" arrival="149.00">
        <route edges="C1C0 C0B0 B0B1 B1B2 B2A2"/>
    </vehicle>

    <vehicle id="64" depart="64.00" arrival="149.00">
        <route edges="C1C2 C2B2 B2C2 C2C1 C1B1"/>
    </vehicle>

    <vehicle id="94" depart="102.00" arrival="149.00">
        <route edges="A1B1 B1A1"/>
    </vehicle>

    <vehicle id="17" depart="17.00" arrival="151.00">
        <route edges="B0C0 C0C1 C1B1 B1C1"/>
    </vehicle>

    <vehicle id="27" depart="27.00" arrival="152.00">
        <route edges="B2B1 B1B2 B2A2"/>
    </vehicle>

    <vehicle id="56" depart="60.00" arrival="153.00">
        <route edges="B1B2 B2B1 B1A1 A1B1"/>
    </vehicle>

    <vehicle id="110" depart="110.00" arrival="153.00">
        <route edges="C2C1 C1B1 B1C1"/>
    </vehicle>

    <vehicle id="78" depart="78.00" arrival="154.00">
        <route edges="B0B1 B1B2 B2A2"/>
    </vehicle>

    <vehicle id="41" depart="41.00" arrival="159.00">
        <route edges="B2A2 A2A1 A1B1 B1C1 C1C2"/>
    </vehicle>

    <vehicle id="69" depart="69.00" arrival="159.00">
        <route edges="C0C1 C1B1 B1A1 A1A2"/>
    </vehicle>

    <vehicle id="76" depart="78.00" arrival="160.00">
        <route edges="B1A1 A1B1 B1B2"/>
    </vehicle>

    <vehicle id="81" depart="82.00" arrival="160.00">
        <route edges="A2A1 A1B1 B1C1 C1C2"/>
    </vehicle>

    <vehicle id="87" depart="87.00" arrival="163.00">
        <route edges="C1B1 B1A1 A1B1"/>
    </vehicle>

    <vehicle id="54" depart="54.00" arrival="164.00">
        <route edges="B1A1 A1B1 B1C1 C1C2 C2B2"/>
    </vehicle>

    <vehicle id="152" depart="152.00" arrival="165.00">
        <route edges="A1A2"/>
    </vehicle>

    <vehicle id="35" depart="36.00" arrival="166.00">
        <route edges="A2A1 A1B1 B1C1 C1C2 C2B2"/>
    </vehicle>

    <vehicle id="91" depart="91.00" arrival="167.00">
        <route edges="C2C1 C1B1 B1A1 A1A0"/>
    </vehicle>

    <vehicle id="63" depart="65.00" arrival="169.00">
        <route edges="A0A1 A1B1 B1C1 C1C2 C2B2"/>
    </vehicle>

    <vehicle id="108" depart="108.00" arrival="170.00">
        <route edges="B1C1 C1C0 C0B0"/>
    </vehicle>

    <vehicle id="50" depart="51.00" arrival="172.00">
        <route edges="A0A1 A1B1 B1C1 C1C0 C0B0"/>
    </vehicle>

    <vehicle id="75" depart="75.00" arrival="175.00">
        <route edges="C2C1 C1B1 B1B2 B2B1"/>
    </vehicle>

    <vehicle id="96" depart="96.00" arrival="175.00">
        <route edges="A2A1 A1B1 B1C1 C1C2 C2B2"/>
    </vehicle>

    <vehicle id="92" depart="92.00" arrival="176.00">
        <route edges="B0C0 C0C1 C1C0 C0B0 B0B1"/>
    </vehicle>

    <vehicle id="111" depart="111.00" arrival="177.00">
        <route edges="B1C1 C1C0 C0B0"/>
    </vehicle>

    <vehicle id="85" depart="85.00" arrival="180.00">
        <route edges="C2B2 B2B1 B1C1"/>
    </vehicle>

    <vehicle id="167" depart="167.00" arrival="180.00">
        <route edges="C1C0"/>
    </vehicle>

    <vehicle id="95" depart="95.00" arrival="183.00">
        <route edges="B1A1 A1A2 A2B2"/>
    </vehicle>

    <vehicle id="122" depart="122.00" arrival="183.00">
        <route edges="A1B1 B1C1 C1C0 C0B0"/>
    </vehicle>

    <vehicle id="90" depart="90.00" arrival="189.00">
        <route edges="C0B0 B0B1 B1B2 B2C2"/>
    </vehicle>

    <vehicle id="55" depart="55.00" arrival="191.00">
        <routeDistribution>
            <route replacedOnEdge="C1C2" reason="device.rerouting" replacedAtTime="65.00" probability="0" edges="C1C2 C2B2 B2A2 A2A1 A1A2 A2B2"/>
            <route edges="C1C2 C2B2 B2B1 B1A1 A1A2 A2B2"/>
        </routeDistribution>
    </vehicle>

    <vehicle id="147" depart="153.00" arrival="193.00">
        <route edges="C0B0 B0B1 B1C1"/>
    </vehicle>

    <vehicle id="113" depart="113.00" arrival="194.00">
        <route edges="B1B2 B2C2 C2C1 C1C0"/>
    </vehicle>

    <vehicle id="83" depart="84.00" arrival="195.00">
        <route edges="A2A1 A1A2 A2B2 B2C2"/>
    </vehicle>

    <vehicle id="157" depart="157.00" arrival="195.00">
        <route edges="C0C1 C1C2"/>
    </vehicle>

    <vehicle id="144" depart="144.00" arrival="197.00">
        <route edges="B1A1 A1A2 A2B2"/>
    </vehicle>

    <vehicle id="156" depart="156.00" arrival="197.00">
        <route edges="A2A1 A1A0"/>
    </vehicle>

    <vehicle id="139" depart="139.00" arrival="202.00">
        <route edges="A2B2 B2A2"/>
    </vehicle>

    <vehicle id="151" depart="151.00" arrival="205.00">
        <route edges="C1C0 C0B0 B0B1 B1C1"/>
    </vehicle>

    <vehicle id="114" depart="114.00" arrival="206.00">
        <route edges="A1A2 A2B2 B2C2 C2C1"/>
    </vehicle>

    <vehicle id="120" depart="120.00" arrival="207.00">
        <route edges="B1A1 A1A2 A2B2 B2A2"/>
    </vehicle>

    <vehicle id="155" depart="155.00" arrival="207.00">
        <route edges="C1C2 C2B2 B2A2 A2A1"/>
    </vehicle>

    <vehicle id="118" depart="118.00" arrival="213.00">
        <route edges="C1C2 C2B2 B2A2 A2A1"/>
    </vehicle>

    <vehicle id="116" depart="117.00" arrival="214.00">
        <route edges="B2A2 A2A1 A1A2 A2B2 B2C2"/>
    </vehicle>

    <vehicle id="171" depart="171.00" arrival="214.00">
        <route edges="A0A1 A1B1"/>
    </vehicle>

    <vehicle id="121" depart="131.00" arrival="215.00">
        <route edges="B1B2 B2C2 C2C1 C1C2 C2B2"/>
    </vehicle>

    <vehicle id="176" depart="176.00" arrival="221.00">
        <route edges="C2B2 B2A2 A2A1 A1A0"/>
    </vehicle>

    <vehicle id="194" depart="195.00" arrival="223.00">
        <route edges="C2B2 B2C2"/>
    </vehicle>

    <vehicle id="158" depart="158.00" arrival="227.00">
        <route edges="B0C0 C0C1 C1C2 C2B2 B2A2"/>
    </vehicle>

    <vehicle id="150" depart="150.00" arrival="228.00">
        <route edges="C1C2 C2B2 B2B1 B1C1"/>
    </vehicle>

    <vehicle id="214" depart="214.00" arrival="229.00">
        <route edges="C0C1"/>
    </vehicle>

    <vehicle id="175" depart="176.00" arrival="230.00">
        <route edges="C2C1 C1B1 B1B2"/>
    </vehicle>

    <vehicle id="133" depart="133.00" arrival="235.00">
        <route edges="B2A2 A2A1 A1A2 A2B2 B2C2 C2C1"/>
    </vehicle>

    <vehicle id="129" depart="130.00" arrival="238.00">
        <route edges="A2B2 B2C2 C2C1 C1C2 C2B2"/>
    </vehicle>

    <vehicle id="97" depart="98.00" arrival="239.00">
        <route edges="B1A1 A1B1 B1C1 C1C0"/>
    </vehicle>

    <vehicle id="132" depart="132.00" arrival="239.00">
        <route edges="C1C0 C0B0 B0B1 B1B2 B2C2"/>
    </vehicle>

    <vehicle id="197" depart="197.00" arrival="240.00">
        <route edges="A0A1 A1A2 A2B2"/>
    </vehicle>

    <vehicle id="101" depart="101.00" arrival="242.00">
        <route edges="C1C0 C0B0 B0B1 B1A1 A1A2"/>
    </vehicle>

    <vehicle id="104" depart="106.00" arrival="242.00">
        <route edges="B0C0 C0C1 C1C2 C2B2 B2C2 C2C1"/>
    </vehicle>

    <vehicle id="181" depart="181.00" arrival="243.00">
        <route edges="B2A2 A2A1 A1B1 B1B2"/>
    </vehicle>

    <vehicle id="131" depart="131.00" arrival="244.00">
        <route edges="B0B1 B1A1 A1A2"/>
    </vehicle>

    <vehicle id="159" depart="164.00" arrival="245.00">
        <route edges="A1A2 A2B2 B2C2 C2C1 C1C2 C2B2"/>
    </vehicle>

    <vehicle id="140" depart="140.00" arrival="246.00">
        <route edges="C0B0 B0B1 B1A1 A1B1"/>
    </vehicle>

    <vehicle id="220" depart="220.00" arrival="246.00">
        <route edges="B2C2 C2C1"/>
    </vehicle>

    <vehicle id="154" depart="154.00" arrival="247.00">
        <route edges="C1B1 B1C1 C1C0"/>
    </vehicle>

    <vehicle id="143" depart="149.00" arrival="248.00">
        <route edges="C1C0 C0B0 B0B1 B1A1 A1A0"/>
    </vehicle>

    <vehicle id="168" depart="168.00" arrival="248.00">
        <route edges="A2A1 A1B1 B1C1 C1B1"/>
    </vehicle>

    <vehicle id="161" depart="161.00" arrival="250.00">
        <route edges="C1B1 B1C1 C1C2"/>
    </vehicle>

    <vehicle id="137" depart="139.00" arrival="251.00">
        <route edges="A1A2 A2B2 B2B1 B1A1 A1A0"/>
    </vehicle>

    <vehicle id="141" depart="143.00" arrival="252.00">
        <route edges="B2B1 B1A1 A1A2 A2B2"/>
    </vehicle>

    <vehicle id="211" depart="211.00" arrival="253.00">
        <route edges="A1B1 B1B2 B2C2"/>
    </vehicle>

    <vehicle id="146" depart="146.00" arrival="255.00">
        <route edges="B2B1 B1A1 A1A2 A2B2"/>
    </vehicle>

    <vehicle id="245" depart="245.00" arrival="258.00">
        <route edges="A2A1"/>
    </vehicle>

    <vehicle id="38" depart="39.00" arrival="260.00">
        <route edges="C1C2 C2B2 B2B1 B1B0"/>
    </vehicle>

    <vehicle id="164" depart="164.00" arrival="260.00">
        <route edges="C1B1 B1C1 C1C0"/>
    </vehicle>

    <vehicle id="182" depart="182.00" arrival="260.00">
        <route edges="B0C0 C0C1 C1B1 B1C1"/>
    </vehicle>

    <vehicle id="93" depart="95.00" arrival="261.00">
        <route edges="C1C0 C0B0 B0B1 B1B2 B2A2 A2A1"/>
    </vehicle>

    <vehicle id="170" depart="170.00" arrival="263.00">
        <route edges="C1B1 B1B2 B2A2 A2A1"/>
    </vehicle>

    <vehicle id="166" depart="166.00" arrival="264.00">
        <route edges="C0C1 C1B1 B1A1 A1A0"/>
    </vehicle>

    <vehicle id="193" depart="193.00" arrival="267.00">
        <route edges="A1A2 A2B2 B2B1 B1A1"/>
    </vehicle>

    <vehicle id="136" depart="142.00" arrival="273.00">
        <route edges="B2B1 B1C1 C1C2 C2B2"/>
    </vehicle>

    <vehicle id="160" depart="160.00" arrival="273.00">
        <route edges="C1C0 C0B0 B0B1 B1B2 B2C2 C2C1"/>
    </vehicle>

    <vehicle id="165" depart="167.00" arrival="273.00">
        <route edges="C1B1 B1A1 A1A2 A2B2"/>
    </vehicle>

    <vehicle id="173" depart="173.00" arrival="273.00">
        <route edges="C2C1 C1B1 B1A1 A1A2 A2B2"/>
    </vehicle>

    <vehicle id="178" depart="182.00" arrival="275.00">
        <route edges="C2C1 C1B1 B1A1 A1A2 A2B2"/>
    </vehicle>

    <vehicle id="184" depart="184.00" arrival="276.00">
        <route edges="A0A1 A1B1 B1C1 C1C2 C2B2"/>
    </vehicle>

    <vehicle id="216" depart="216.00" arrival="278.00">
        <route edges="A1B1 B1C1 C1C2 C2B2"/>
    </vehicle>

    <vehicle id="195" depart="195.00" arrival="286.00">
        <route edges="C1C2 C2B2 B2A2"/>
    </vehicle>

    <vehicle id="222" depart="222.00" arrival="288.00">
        <route edges="C1C2 C2B2 B2A2"/>
    </vehicle>

    <vehicle id="264" depart="264.00" arrival="288.00">
        <route edges="A0A1 A1A2"/>
    </vehicle>

    <vehicle id="244" depart="244.00" arrival="294.00">
        <route edges="B1C1 C1C2 C2B2 B2A2"/>
    </vehicle>

    <vehicle id="200" depart="205.00" arrival="298.00">
        <route edges="B1A1 A1A2 A2B2 B2A2 A2A1"/>
    </vehicle>

    <vehicle id="177" depart="179.00" arrival="300.00">
        <route edges="C2C1 C1B1 B1A1 A1B1"/>
    </vehicle>

    <vehicle id="44" depart="44.00" arrival="301.00">
        <route edges="A1A0 A0B0"/>
    </vehicle>

    <vehicle id="202" depart="202.00" arrival="303.00">
        <route edges="C1B1 B1A1 A1B1"/>
    </vehicle>

    <vehicle id="20" depart="20.00" arrival="305.00">
        <route edges="B2C2 C2C1 C1B1 B1A1 A1A0 A0B0"/>
    </vehicle>

    <vehicle id="265" depart="267.00" arrival="307.00">
        <route edges="A1A2 A2B2 B2C2"/>
    </vehicle>

    <vehicle id="210" depart="210.00" arrival="310.00">
        <route edges="B0C0 C0C1 C1C2 C2B2 B2B1"/>
    </vehicle>

    <vehicle id="98" depart="98.00" arrival="311.00">
        <route edges="B1C1 C1B1 B1A1 A1A0 A0B0"/>
    </vehicle>

    <vehicle id="232" depart="232.00" arrival="311.00">
        <route edges="B1B2 B2A2 A2A1 A1A2"/>
    </vehicle>

    <vehicle id="252" depart="252.00" arrival="312.00">
        <route edges="A0A1 A1A2 A2B2 B2B1"/>
    </vehicle>

    <vehicle id="47" depart="47.00" arrival="313.00">
        <route edges="A0B0 B0C0"/>
    </vehicle>

    <vehicle id="82" depart="84.00" arrival="314.00">
        <route edges="C1C0 C0B0 B0B1 B1A1 A1A0 A0B0"/>
    </vehicle>

    <vehicle id="187" depart="187.00" arrival="319.00">
        <route edges="B0B1 B1A1 A1A0 A0B0"/>
    </vehicle>

    <vehicle id="263" depart="263.00" arrival="319.00">
        <route edges="C2B2 B2A2 A2A1 A1B1"/>
    </vehicle>

    <vehicle id="103" depart="103.00" arrival="320.00">
        <route edges="B0C0 C0C1 C1B1 B1A1 A1A0 A0B0"/>
    </vehicle>

    <vehicle id="227" depart="227.00" arrival="320.00">
        <route edges="A2A1 A1A2 A2B2 B2B1"/>
    </vehicle>

    <vehicle id="198" depart="202.00" arrival="321.00">
        <route edges="B1A1 A1B1 B1C1"/>
    </vehicle>

    <vehicle id="228" depart="228.00" arrival="321.00">
        <route edges="C0C1 C1B1 B1B2"/>
    </vehicle>

    <vehicle id="206" depart="206.00" arrival="322.00">
        <route edges="B2C2 C2C1 C1C2 C2B2 B2A2 A2A1"/>
    </vehicle>

    <vehicle id="217" depart="220.00" arrival="322.00">
        <route edges="B1B2 B2A2 A2A1 A1A0 A0B0"/>
    </vehicle>

    <vehicle id="233" depart="233.00" arrival="322.00">
        <route edges="A2A1 A1A2 A2B2 B2C2"/>
    </vehicle>

    <vehicle id="257" depart="259.00" arrival="323.00">
        <route edges="C0C1 C1B1"/>
    </vehicle>

    <vehicle id="123" depart="123.00" arrival="324.00">
        <route edges="A2A1 A1A0 A0B0 B0C0"/>
    </vehicle>

    <vehicle id="259" depart="259.00" arrival="325.00">
        <route edges="A0A1 A1B1 B1B2"/>
    </vehicle>

    <vehicle id="68" depart="68.00" arrival="327.00">
        <route edges="A0B0 B0C0 C0C1"/>
    </vehicle>

    <vehicle id="247" depart="247.00" arrival="330.00">
        <route edges="B0B1 B1B2 B2C2"/>
    </vehicle>

    <vehicle id="254" depart="254.00" arrival="330.00">
        <route edges="A0B0 B0C0"/>
    </vehicle>

    <vehicle id="258" depart="258.00" arrival="330.00">
        <route edges="A2B2 B2A2 A2A1 A1A0 A0B0"/>
    </vehicle>

    <vehicle id="32" depart="32.00" arrival="331.00">
        <route edges="C1C0 C0B0 B0C0 C0C1"/>
    </vehicle>

    <vehicle id="268" depart="268.00" arrival="333.00">
        <route edges="A1B1 B1B2 B2A2"/>
    </vehicle>

    <vehicle id="285" depart="285.00" arrival="336.00">
        <route edges="B2C2 C2C1 C1B1 B1A1"/>
    </vehicle>

    <vehicle id="218" depart="218.00" arrival="337.00">
        <route edges="A2A1 A1B1 B1C1 C1C0"/>
    </vehicle>

    <vehicle id="224" depart="224.00" arrival="341.00">
        <route edges="C1B1 B1C1"/>
    </vehicle>

    <vehicle id="237" depart="237.00" arrival="342.00">
        <route edges="B1A1 A1B1 B1C1 C1C2"/>
    </vehicle>

    <vehicle id="337" depart="337.00" arrival="350.00">
        <route edges="B2A2"/>
    </vehicle>

    <vehicle id="235" depart="235.00" arrival="352.00">
        <route edges="B0C0 C0C1 C1B1 B1C1"/>
    </vehicle>

    <vehicle id="37" depart="37.00" arrival="355.00">
        <route edges="B2B1 B1B0 B0C0"/>
    </vehicle>

    <vehicle id="70" depart="70.00" arrival="355.00">
        <route edges="B1B0 B0B1 B1C1"/>
    </vehicle>

    <vehicle id="307" depart="307.00" arrival="358.00">
        <route edges="B1B2 B2B1 B1A1"/>
    </vehicle>

    <vehicle id="29" depart="29.00" arrival="359.00">
        <route edges="A1A2 A2B2 B2B1 B1B0 B0C0"/>
    </vehicle>

    <vehicle id="248" depart="248.00" arrival="361.00">
        <route edges="B0C0 C0C1 C1B1 B1A1 A1A2"/>
    </vehicle>

    <vehicle id="291" depart="291.00" arrival="361.00">
        <route edges="C1B1 B1A1 A1A0"/>
    </vehicle>

    <vehicle id="229" depart="229.00" arrival="363.00">
        <route edges="B2B1 B1A1 A1A2 A2B2"/>
    </vehicle>

    <vehicle id="138" depart="138.00" arrival="365.00">
        <route edges="A1A0 A0B0 B0B1 B1C1"/>
    </vehicle>

    <vehicle id="311" depart="314.00" arrival="365.00">
        <route edges="A1B1 B1A1 A1A0"/>
    </vehicle>

    <vehicle id="276" depart="276.00" arrival="366.00">
        <route edges="A1A0 A0B0 B0C0 C0C1"/>
    </vehicle>

    <vehicle id="299" depart="299.00" arrival="367.00">
        <route edges="A0A1 A1B1 B1C1 C1C2 C2B2"/>
    </vehicle>

    <vehicle id="203" depart="203.00" arrival="368.00">
        <route edges="A1A0 A0B0 B0B1 B1B2"/>
    </vehicle>

    <vehicle id="221" depart="221.00" arrival="368.00">
        <route edges="B2A2 A2A1 A1B1 B1C1 C1C2 C2B2"/>
    </vehicle>

    <vehicle id="355" depart="355.00" arrival="368.00">
        <route edges="B2C2"/>
    </vehicle>

    <vehicle id="270" depart="270.00" arrival="370.00">
        <route edges="C1B1 B1B2 B2C2 C2C1"/>
    </vehicle>

    <vehicle id="238" depart="238.00" arrival="373.00">
        <route edges="B2A2 A2A1 A1A2 A2B2 B2C2"/>
    </vehicle>

    <vehicle id="86" depart="86.00" arrival="375.00">
        <route edges="B1B0 B0C0 C0C1"/>
    </vehicle>

    <vehicle id="234" depart="234.00" arrival="375.00">
        <route edges="B2C2 C2C1 C1B1 B1A1 A1A0 A0B0"/>
    </vehicle>

    <vehicle id="275" depart="275.00" arrival="377.00">
        <route edges="B2C2 C2C1 C1C2 C2B2 B2B1"/>
    </vehicle>

    <vehicle id="9" depart="9.00" arrival="381.00">
        <route edges="C1B1 B1B0 B0A0 A0A1"/>
    </vehicle>

    <vehicle id="319" depart="319.00" arrival="384.00">
        <route edges="B1B2 B2A2 A2A1 A1A2 A2B2"/>
    </vehicle>

    <vehicle id="292" depart="292.00" arrival="386.00">
        <route edges="C1C2 C2B2 B2A2 A2A1"/>
    </vehicle>

    <vehicle id="266" depart="266.00" arrival="390.00">
        <route edges="B1C1 C1C2 C2B2 B2A2 A2A1"/>
    </vehicle>

    <vehicle id="287" depart="289.00" arrival="390.00">
        <route edges="A2B2 B2C2 C2C1 C1B1"/>
    </vehicle>

    <vehicle id="219" depart="219.00" arrival="392.00">
        <route edges="B1A1 A1B1 B1C1 C1B1"/>
    </vehicle>

    <vehicle id="296" depart="296.00" arrival="394.00">
        <route edges="A2A1 A1B1 B1C1 C1B1"/>
    </vehicle>

    <vehicle id="343" depart="343.00" arrival="399.00">
        <route edges="B2A2 A2A1 A1A2 A2B2"/>
    </vehicle>

    <vehicle id="332" depart="332.00" arrival="400.00">
        <route edges="C0C1 C1C2 C2B2 B2A2"/>
    </vehicle>

    <vehicle id="316" depart="316.00" arrival="402.00">
        <route edges="A2B2 B2A2 A2A1 A1A0"/>
    </vehicle>

    <vehicle id="310" depart="310.00" arrival="403.00">
        <route edges="A2B2 B2A2 A2A1 A1A0"/>
    </vehicle>

    <vehicle id="344" depart="344.00" arrival="403.00">
        <route edges="A2A1 A1A2 A2B2 B2C2"/>
    </vehicle>

    <vehicle id="346" depart="348.00" arrival="403.00">
        <route edges="B2C2 C2C1 C1C2 C2B2"/>
    </vehicle>

    <vehicle id="315" depart="320.00" arrival="404.00">
        <route edges="C2C1 C1B1 B1B2"/>
    </vehicle>

    <vehicle id="362" depart="362.00" arrival="405.00">
        <route edges="C2B2 B2C2 C2C1"/>
    </vehicle>

    <vehicle id="251" depart="251.00" arrival="406.00">
        <route edges="B0C0 C0C1 C1B1 B1C1"/>
    </vehicle>

    <vehicle id="334" depart="334.00" arrival="408.00">
        <route edges="B1B2 B2B1 B1A1"/>
    </vehicle>

    <vehicle id="236" depart="238.00" arrival="409.00">
        <route edges="B0C0 C0C1 C1B1 B1A1 A1B1"/>
    </vehicle>

    <vehicle id="354" depart="354.00" arrival="409.00">
        <route edges="A2B2 B2A2 A2A1 A1A0"/>
    </vehicle>

    <vehicle id="302" depart="306.00" arrival="410.00">
        <route edges="B2C2 C2C1 C1C2 C2B2 B2B1"/>
    </vehicle>

    <vehicle id="53" depart="53.00" arrival="411.00">
        <route edges="A1A0 A0B0 B0B1 B1A1"/>
    </vehicle>

    <vehicle id="88" depart="88.00" arrival="412.00">
        <route edges="A1A0 A0B0 B0B1 B1A1"/>
    </vehicle>

    <vehicle id="126" depart="126.00" arrival="413.00">
        <route edges="A0B0 B0B1 B1A1"/>
    </vehicle>

    <vehicle id="385" depart="385.00" arrival="414.00">
        <route edges="B2A2 A2A1"/>
    </vehicle>

    <vehicle id="404" depart="404.00" arrival="417.00">
        <route edges="B1C1"/>
    </vehicle>

    <vehicle id="340" depart="340.00" arrival="418.00">
        <route edges="B2B1 B1A1 A1A2"/>
    </vehicle>

    <vehicle id="333" depart="335.00" arrival="419.00">
        <route edges="C0C1 C1C2 C2B2 B2A2 A2A1"/>
    </vehicle>

    <vehicle id="179" depart="179.00" arrival="420.00">
        <route edges="A1A0 A0B0 B0B1 B1A1"/>
    </vehicle>

    <vehicle id="347" depart="347.00" arrival="420.00">
        <route edges="C0C1 C1C2 C2B2 B2B1"/>
    </vehicle>

    <vehicle id="215" depart="215.00" arrival="422.00">
        <route edges="A1A0 A0B0 B0B1 B1A1"/>
    </vehicle>

    <vehicle id="297" depart="297.00" arrival="423.00">
        <route edges="B0B1 B1C1 C1C2"/>
    </vehicle>

    <vehicle id="45" depart="47.00" arrival="424.00">
        <route edges="A1A0 A0B0 B0B1 B1B2 B2B1"/>
    </vehicle>

    <vehicle id="112" depart="112.00" arrival="424.00">
        <route edges="A0B0 B0B1 B1B2 B2A2"/>
    </vehicle>

    <vehicle id="149" depart="149.00" arrival="424.00">
        <routeDistribution>
            <route replacedOnEdge="A0B0" reason="device.rerouting" replacedAtTime="249.00" probability="0" edges="A0B0 B0C0 C0C1 C1C2"/>
            <route replacedOnEdge="A0B0" reason="device.rerouting" replacedAtTime="279.00" probability="0" edges="A0B0 B0B1 B1C1 C1C2"/>
            <route replacedOnEdge="A0B0" reason="device.rerouting" replacedAtTime="289.00" probability="0" edges="A0B0 B0C0 C0C1 C1C2"/>
            <route edges="A0B0 B0B1 B1C1 C1C2"/>
        </routeDistribution>
    </vehicle>

    <vehicle id="284" depart="284.00" arrival="425.00">
        <route edges="B2B1 B1C1 C1B1"/>
    </vehicle>

    <vehicle id="376" depart="376.00" arrival="425.00">
        <route edges="B0C0 C0C1 C1B1 B1B2"/>
    </vehicle>

    <vehicle id="345" depart="345.00" arrival="426.00">
        <route edges="B2C2 C2C1 C1B1 B1A1"/>
    </vehicle>

    <vehicle id="350" depart="351.00" arrival="428.00">
        <route edges="B2B1 B1C1 C1C2"/>
    </vehicle>

    <vehicle id="142" depart="142.00" arrival="431.00">
        <routeDistribution>
            <route replacedOnEdge="B1B0" reason="device.rerouting" replacedAtTime="172.00" probability="0" edges="B1B0 B0C0 C0C1 C1C2"/>
            <route edges="B1B0 B0B1 B1C1 C1C2"/>
        </routeDistribution>
    </vehicle>

    <vehicle id="115" depart="115.00" arrival="432.00">
        <route edges="A0B0 B0B1 B1A1 A1B1"/>
    </vehicle>

    <vehicle id="80" depart="80.00" arrival="435.00">
        <route edges="A0B0 B0B1 B1B2 B2B1"/>
    </vehicle>

    <vehicle id="321" depart="322.00" arrival="437.00">
        <route edges="B2C2 C2C1 C1B1 B1A1 A1A2"/>
    </vehicle>

    <vehicle id="349" depart="349.00" arrival="439.00">
        <route edges="B1A1 A1B1 B1C1"/>
    </vehicle>

    <vehicle id="342" depart="342.00" arrival="440.00">
        <route edges="A0A1 A1B1 B1A1"/>
    </vehicle>

    <vehicle id="399" depart="399.00" arrival="449.00">
        <route edges="B1B2 B2C2 C2C1 C1B1"/>
    </vehicle>
