<?xml version="1.0" encoding="UTF-8"?>

<!-- generated on 2024-03-06 19:02:31 by Eclipse SUMO GUI Version 1.19.0
<configuration xmlns:xsi="http://www.w3.org/2001/XMLSchema-instance" xsi:noNamespaceSchemaLocation="http://sumo.dlr.de/xsd/sumoConfiguration.xsd">

    <input>
        <net-file value="data/cross.net.xml"/>
        <route-files value="data/cross.rou.xml"/>
        <additional-files value="data/cross.det.xml"/>
    </input>

    <output>
        <tripinfo-output value="tripinfo.xml"/>
    </output>

    <time>
        <begin value="0"/>
    </time>

    <report>
        <verbose value="true"/>
        <no-step-log value="true"/>
    </report>

    <traci_server>
        <remote-port value="52190"/>
    </traci_server>

</configuration>
-->

<tripinfos xmlns:xsi="http://www.w3.org/2001/XMLSchema-instance" xsi:noNamespaceSchemaLocation="http://sumo.dlr.de/xsd/tripinfo_file.xsd">
    <tripinfo id="left_0" depart="0.00" departLane="52o_0" departPos="5.10" departSpeed="0.00" departDelay="0.00" arrival="88.00" arrivalLane="51i_0" arrivalPos="10.00" arrivalSpeed="12.23" duration="88.00" routeLength="1015.10" waitingTime="0.00" waitingCount="0" stopTime="0.00" timeLoss="14.62" rerouteNo="0" devices="tripinfo_left_0" vType="typeWE" speedFactor="1.06" vaporized=""/>
    <tripinfo id="right_2" depart="3.00" departLane="51o_0" departPos="5.10" departSpeed="0.00" departDelay="0.00" arrival="94.00" arrivalLane="52i_0" arrivalPos="10.00" arrivalSpeed="11.37" duration="91.00" routeLength="1015.10" waitingTime="0.00" waitingCount="0" stopTime="0.00" timeLoss="14.92" rerouteNo="0" devices="tripinfo_right_2" vType="typeWE" speedFactor="1.01" vaporized=""/>
    <tripinfo id="right_3" depart="8.00" departLane="51o_0" departPos="5.10" departSpeed="0.00" departDelay="4.00" arrival="96.00" arrivalLane="52i_0" arrivalPos="10.00" arrivalSpeed="12.18" duration="88.00" routeLength="1015.10" waitingTime="0.00" waitingCount="0" stopTime="0.00" timeLoss="14.90" rerouteNo="0" devices="tripinfo_right_3" vType="typeWE" speedFactor="1.08" vaporized=""/>
    <tripinfo id="left_1" depart="5.00" departLane="52o_0" departPos="5.10" departSpeed="0.00" departDelay="3.00" arrival="99.00" arrivalLane="51i_0" arrivalPos="10.00" arrivalSpeed="10.90" duration="94.00" routeLength="1015.10" waitingTime="0.00" waitingCount="0" stopTime="0.00" timeLoss="14.93" rerouteNo="0" devices="tripinfo_left_1" vType="typeWE" speedFactor="0.94" vaporized=""/>
    <tripinfo id="left_4" depart="10.00" departLane="52o_0" departPos="5.10" departSpeed="0.00" departDelay="4.00" arrival="101.00" arrivalLane="51i_0" arrivalPos="10.00" arrivalSpeed="11.89" duration="91.00" routeLength="1015.10" waitingTime="0.00" waitingCount="0" stopTime="0.00" timeLoss="15.86" rerouteNo="0" devices="tripinfo_left_4" vType="typeWE" speedFactor="1.03" vaporized=""/>
    <tripinfo id="left_6" depart="22.00" departLane="52o_0" departPos="5.10" departSpeed="0.00" departDelay="0.00" arrival="112.00" arrivalLane="51i_0" arrivalPos="10.00" arrivalSpeed="12.24" duration="90.00" routeLength="1015.10" waitingTime="0.00" waitingCount="0" stopTime="0.00" timeLoss="15.73" rerouteNo="0" devices="tripinfo_left_6" vType="typeWE" speedFactor="1.05" vaporized=""/>
    <tripinfo id="right_5" depart="13.00" departLane="51o_0" departPos="5.10" departSpeed="0.00" departDelay="4.00" arrival="114.00" arrivalLane="52i_0" arrivalPos="10.00" arrivalSpeed="9.56" duration="101.00" routeLength="1015.10" waitingTime="0.00" waitingCount="0" stopTime="0.00" timeLoss="14.43" rerouteNo="0" devices="tripinfo_right_5" vType="typeWE" speedFactor="0.83" vaporized=""/>
    <tripinfo id="right_10" depart="42.00" departLane="51o_0" departPos="5.10" departSpeed="0.00" departDelay="0.00" arrival="164.00" arrivalLane="52i_0" arrivalPos="10.00" arrivalSpeed="12.83" duration="122.00" routeLength="1015.10" waitingTime="22.00" waitingCount="1" stopTime="0.00" timeLoss="49.54" rerouteNo="0" devices="tripinfo_right_10" vType="typeWE" speedFactor="1.09" vaporized=""/>
    <tripinfo id="right_13" depart="55.00" departLane="51o_0" departPos="5.10" departSpeed="0.00" departDelay="0.00" arrival="166.00" arrivalLane="52i_0" arrivalPos="10.00" arrivalSpeed="13.12" duration="111.00" routeLength="1015.10" waitingTime="12.00" waitingCount="1" stopTime="0.00" timeLoss="39.41" rerouteNo="0" devices="tripinfo_right_13" vType="typeWE" speedFactor="1.12" vaporized=""/>
    <tripinfo id="left_7" depart="31.00" departLane="52o_0" departPos="5.10" departSpeed="0.00" departDelay="0.00" arrival="172.00" arrivalLane="51i_0" arrivalPos="10.00" arrivalSpeed="10.15" duration="141.00" routeLength="1015.10" waitingTime="32.00" waitingCount="1" stopTime="0.00" timeLoss="58.88" rerouteNo="0" devices="tripinfo_left_7" vType="typeWE" speedFactor="0.89" vaporized=""/>
    <tripinfo id="right_14" depart="61.00" departLane="51o_0" departPos="5.10" departSpeed="0.00" departDelay="0.00" arrival="172.00" arrivalLane="52i_0" arrivalPos="10.00" arrivalSpeed="11.47" duration="111.00" routeLength="1015.10" waitingTime="3.00" waitingCount="1" stopTime="0.00" timeLoss="33.96" rerouteNo="0" devices="tripinfo_right_14" vType="typeWE" speedFactor="0.99" vaporized=""/>
    <tripinfo id="left_8" depart="36.00" departLane="52o_0" departPos="5.10" departSpeed="0.00" departDelay="3.00" arrival="174.00" arrivalLane="51i_0" arrivalPos="10.00" arrivalSpeed="10.58" duration="138.00" routeLength="1015.10" waitingTime="29.00" waitingCount="1" stopTime="0.00" timeLoss="58.49" rerouteNo="0" devices="tripinfo_left_8" vType="typeWE" speedFactor="0.94" vaporized=""/>
    <tripinfo id="right_15" depart="69.00" departLane="51o_0" departPos="5.10" departSpeed="0.00" departDelay="0.00" arrival="176.00" arrivalLane="52i_0" arrivalPos="10.00" arrivalSpeed="10.09" duration="107.00" routeLength="1015.10" waitingTime="1.00" waitingCount="1" stopTime="0.00" timeLoss="27.37" rerouteNo="0" devices="tripinfo_right_15" vType="typeWE" speedFactor="0.93" vaporized=""/>
    <tripinfo id="left_9" depart="41.00" departLane="52o_0" departPos="5.10" departSpeed="0.00" departDelay="0.00" arrival="177.00" arrivalLane="51i_0" arrivalPos="10.00" arrivalSpeed="10.17" duration="136.00" routeLength="1015.10" waitingTime="25.00" waitingCount="1" stopTime="0.00" timeLoss="52.59" rerouteNo="0" devices="tripinfo_left_9" vType="typeWE" speedFactor="0.86" vaporized=""/>
    <tripinfo id="left_11" depart="46.00" departLane="52o_0" departPos="5.10" departSpeed="0.00" departDelay="1.00" arrival="179.00" arrivalLane="51i_0" arrivalPos="10.00" arrivalSpeed="10.75" duration="133.00" routeLength="1015.10" waitingTime="23.00" waitingCount="1" stopTime="0.00" timeLoss="57.97" rerouteNo="0" devices="tripinfo_left_11" vType="typeWE" speedFactor="1.03" vaporized=""/>
    <tripinfo id="left_12" depart="53.00" departLane="52o_0" departPos="5.10" departSpeed="0.00" departDelay="0.00" arrival="181.00" arrivalLane="51i_0" arrivalPos="10.00" arrivalSpeed="11.48" duration="128.00" routeLength="1015.10" waitingTime="17.00" waitingCount="1" stopTime="0.00" timeLoss="53.66" rerouteNo="0" devices="tripinfo_left_12" vType="typeWE" speedFactor="1.05" vaporized=""/>
    <tripinfo id="right_16" depart="84.00" departLane="51o_0" departPos="5.10" departSpeed="0.00" departDelay="0.00" arrival="182.00" arrivalLane="52i_0" arrivalPos="10.00" arrivalSpeed="10.08" duration="98.00" routeLength="1015.10" waitingTime="0.00" waitingCount="0" stopTime="0.00" timeLoss="15.33" rerouteNo="0" devices="tripinfo_right_16" vType="typeWE" speedFactor="0.88" vaporized=""/>
    <tripinfo id="left_17" depart="85.00" departLane="52o_0" departPos="5.10" departSpeed="0.00" departDelay="0.00" arrival="183.00" arrivalLane="51i_0" arrivalPos="10.00" arrivalSpeed="10.60" duration="98.00" routeLength="1015.10" waitingTime="0.00" waitingCount="0" stopTime="0.00" timeLoss="18.35" rerouteNo="0" devices="tripinfo_left_17" vType="typeWE" speedFactor="0.94" vaporized=""/>
    <tripinfo id="left_21" depart="99.00" departLane="52o_0" departPos="5.10" departSpeed="0.00" departDelay="0.00" arrival="189.00" arrivalLane="51i_0" arrivalPos="10.00" arrivalSpeed="11.48" duration="90.00" routeLength="1015.10" waitingTime="0.00" waitingCount="0" stopTime="0.00" timeLoss="13.86" rerouteNo="0" devices="tripinfo_left_21" vType="typeWE" speedFactor="1.01" vaporized=""/>
    <tripinfo id="down_18" depart="89.00" departLane="54o_0" departPos="7.10" departSpeed="0.00" departDelay="0.00" arrival="206.00" arrivalLane="53i_0" arrivalPos="10.00" arrivalSpeed="10.88" duration="117.00" routeLength="1013.10" waitingTime="13.00" waitingCount="1" stopTime="0.00" timeLoss="40.71" rerouteNo="0" devices="tripinfo_down_18" vType="typeNS" speedFactor="0.94" vaporized=""/>
    <tripinfo id="down_19" depart="96.00" departLane="54o_0" departPos="7.10" departSpeed="0.00" departDelay="0.00" arrival="208.00" arrivalLane="53i_0" arrivalPos="10.00" arrivalSpeed="11.59" duration="112.00" routeLength="1013.10" waitingTime="9.00" waitingCount="1" stopTime="0.00" timeLoss="50.32" rerouteNo="0" devices="tripinfo_down_19" vType="typeNS" speedFactor="1.16" vaporized=""/>
    <tripinfo id="down_24" depart="122.00" departLane="54o_0" departPos="7.10" departSpeed="0.00" departDelay="0.00" arrival="224.00" arrivalLane="53i_0" arrivalPos="10.00" arrivalSpeed="9.54" duration="102.00" routeLength="1013.10" waitingTime="0.00" waitingCount="0" stopTime="0.00" timeLoss="15.15" rerouteNo="0" devices="tripinfo_down_24" vType="typeNS" speedFactor="0.83" vaporized=""/>
    <tripinfo id="right_20" depart="101.00" departLane="51o_0" departPos="5.10" departSpeed="0.00" departDelay="2.00" arrival="240.00" arrivalLane="52i_0" arrivalPos="10.00" arrivalSpeed="11.88" duration="139.00" routeLength="1015.10" waitingTime="38.00" waitingCount="1" stopTime="0.00" timeLoss="63.53" rerouteNo="0" devices="tripinfo_right_20" vType="typeWE" speedFactor="1.02" vaporized=""/>
    <tripinfo id="right_22" depart="108.00" departLane="51o_0" departPos="5.10" departSpeed="0.00" departDelay="0.00" arrival="243.00" arrivalLane="52i_0" arrivalPos="10.00" arrivalSpeed="10.68" duration="135.00" routeLength="1015.10" waitingTime="31.00" waitingCount="1" stopTime="0.00" timeLoss="57.83" rerouteNo="0" devices="tripinfo_right_22" vType="typeWE" speedFactor="0.97" vaporized=""/>
    <tripinfo id="left_26" depart="131.00" departLane="52o_0" departPos="5.10" departSpeed="0.00" departDelay="0.00" arrival="245.00" arrivalLane="51i_0" arrivalPos="10.00" arrivalSpeed="10.49" duration="114.00" routeLength="1015.10" waitingTime="7.00" waitingCount="1" stopTime="0.00" timeLoss="33.31" rerouteNo="0" devices="tripinfo_left_26" vType="typeWE" speedFactor="0.92" vaporized=""/>
    <tripinfo id="left_27" depart="136.00" departLane="52o_0" departPos="5.10" departSpeed="0.00" departDelay="1.00" arrival="246.00" arrivalLane="51i_0" arrivalPos="10.00" arrivalSpeed="10.55" duration="110.00" routeLength="1015.10" waitingTime="2.00" waitingCount="1" stopTime="0.00" timeLoss="31.68" rerouteNo="0" devices="tripinfo_left_27" vType="typeWE" speedFactor="0.95" vaporized=""/>
    <tripinfo id="left_28" depart="141.00" departLane="52o_0" departPos="5.10" departSpeed="0.00" departDelay="3.00" arrival="248.00" arrivalLane="51i_0" arrivalPos="10.00" arrivalSpeed="11.04" duration="107.00" routeLength="1015.10" waitingTime="0.00" waitingCount="0" stopTime="0.00" timeLoss="36.14" rerouteNo="0" devices="tripinfo_left_28" vType="typeWE" speedFactor="1.13" vaporized=""/>
    <tripinfo id="right_23" depart="114.00" departLane="51o_0" departPos="5.10" departSpeed="0.00" departDelay="0.00" arrival="250.00" arrivalLane="52i_0" arrivalPos="10.00" arrivalSpeed="10.44" duration="136.00" routeLength="1015.10" waitingTime="28.00" waitingCount="1" stopTime="0.00" timeLoss="54.17" rerouteNo="0" devices="tripinfo_right_23" vType="typeWE" speedFactor="0.89" vaporized=""/>
    <tripinfo id="left_29" depart="146.00" departLane="52o_0" departPos="5.10" departSpeed="0.00" departDelay="4.00" arrival="250.00" arrivalLane="51i_0" arrivalPos="10.00" arrivalSpeed="10.94" duration="104.00" routeLength="1015.10" waitingTime="0.00" waitingCount="0" stopTime="0.00" timeLoss="24.48" rerouteNo="0" devices="tripinfo_left_29" vType="typeWE" speedFactor="0.93" vaporized=""/>
    <tripinfo id="left_31" depart="153.00" departLane="52o_0" departPos="5.10" departSpeed="0.00" departDelay="0.00" arrival="252.00" arrivalLane="51i_0" arrivalPos="10.00" arrivalSpeed="11.33" duration="99.00" routeLength="1015.10" waitingTime="0.00" waitingCount="0" stopTime="0.00" timeLoss="28.58" rerouteNo="0" devices="tripinfo_left_31" vType="typeWE" speedFactor="1.15" vaporized=""/>
    <tripinfo id="right_25" depart="125.00" departLane="51o_0" departPos="5.10" departSpeed="0.00" departDelay="0.00" arrival="253.00" arrivalLane="52i_0" arrivalPos="10.00" arrivalSpeed="10.15" duration="128.00" routeLength="1015.10" waitingTime="19.00" waitingCount="1" stopTime="0.00" timeLoss="45.13" rerouteNo="0" devices="tripinfo_right_25" vType="typeWE" speedFactor="0.87" vaporized=""/>
    <tripinfo id="left_32" depart="158.00" departLane="52o_0" departPos="5.10" departSpeed="0.00" departDelay="2.00" arrival="253.00" arrivalLane="51i_0" arrivalPos="10.00" arrivalSpeed="11.14" duration="95.00" routeLength="1015.10" waitingTime="0.00" waitingCount="0" stopTime="0.00" timeLoss="19.06" rerouteNo="0" devices="tripinfo_left_32" vType="typeWE" speedFactor="1.01" vaporized=""/>
    <tripinfo id="right_30" depart="145.00" departLane="51o_0" departPos="5.10" departSpeed="0.00" departDelay="0.00" arrival="255.00" arrivalLane="52i_0" arrivalPos="10.00" arrivalSpeed="10.38" duration="110.00" routeLength="1015.10" waitingTime="0.00" waitingCount="0" stopTime="0.00" timeLoss="40.43" rerouteNo="0" devices="tripinfo_right_30" vType="typeWE" speedFactor="1.18" vaporized=""/>
    <tripinfo id="left_33" depart="166.00" departLane="52o_0" departPos="5.10" departSpeed="0.00" departDelay="6.00" arrival="255.00" arrivalLane="51i_0" arrivalPos="10.00" arrivalSpeed="11.69" duration="89.00" routeLength="1015.10" waitingTime="0.00" waitingCount="0" stopTime="0.00" timeLoss="19.58" rerouteNo="0" devices="tripinfo_left_33" vType="typeWE" speedFactor="1.17" vaporized=""/>
    <tripinfo id="right_35" depart="167.00" departLane="51o_0" departPos="5.10" departSpeed="0.00" departDelay="0.00" arrival="258.00" arrivalLane="52i_0" arrivalPos="10.00" arrivalSpeed="11.63" duration="91.00" routeLength="1015.10" waitingTime="0.00" waitingCount="0" stopTime="0.00" timeLoss="15.83" rerouteNo="0" devices="tripinfo_right_35" vType="typeWE" speedFactor="1.02" vaporized=""/>
    <tripinfo id="left_34" depart="172.00" departLane="52o_0" departPos="5.10" departSpeed="0.00" departDelay="8.00" arrival="263.00" arrivalLane="51i_0" arrivalPos="10.00" arrivalSpeed="11.34" duration="91.00" routeLength="1015.10" waitingTime="0.00" waitingCount="0" stopTime="0.00" timeLoss="14.75" rerouteNo="0" devices="tripinfo_left_34" vType="typeWE" speedFactor="0.99" vaporized=""/>
    <tripinfo id="newEmergencyVeh-250" depart="251.00" departLane="54o_0" departPos="5.10" departSpeed="0.00" departDelay="0.00" arrival="298.00" arrivalLane="3o_0" arrivalPos="495.25" arrivalSpeed="15.00" duration="47.00" routeLength="1005.00" waitingTime="0.00" waitingCount="0" stopTime="0.00" timeLoss="5.15" rerouteNo="1" devices="tripinfo_newEmergencyVeh-250 routing_newEmergencyVeh-250" vType="DEFAULT_VEHTYPE@newEmergencyVeh-250" speedFactor="1.06" vaporized="teleport"/>
    <tripinfo id="left_37" depart="177.00" departLane="52o_0" departPos="5.10" departSpeed="0.00" departDelay="8.00" arrival="309.00" arrivalLane="51i_0" arrivalPos="10.00" arrivalSpeed="13.16" duration="132.00" routeLength="1015.10" waitingTime="36.00" waitingCount="1" stopTime="0.00" timeLoss="62.25" rerouteNo="0" devices="tripinfo_left_37" vType="typeWE" speedFactor="1.18" vaporized=""/>
    <tripinfo id="left_38" depart="182.00" departLane="52o_0" departPos="5.10" departSpeed="0.00" departDelay="10.00" arrival="313.00" arrivalLane="51i_0" arrivalPos="10.00" arrivalSpeed="12.43" duration="131.00" routeLength="1015.10" waitingTime="32.00" waitingCount="1" stopTime="0.00" timeLoss="58.72" rerouteNo="0" devices="tripinfo_left_38" vType="typeWE" speedFactor="1.10" vaporized=""/>
    <tripinfo id="right_36" depart="174.00" departLane="51o_0" departPos="5.10" departSpeed="0.00" departDelay="6.00" arrival="316.00" arrivalLane="52i_0" arrivalPos="10.00" arrivalSpeed="11.03" duration="142.00" routeLength="1015.10" waitingTime="38.00" waitingCount="1" stopTime="0.00" timeLoss="64.50" rerouteNo="0" devices="tripinfo_right_36" vType="typeWE" speedFactor="0.97" vaporized=""/>
    <tripinfo id="left_43" depart="194.00" departLane="52o_0" departPos="5.10" departSpeed="0.00" departDelay="0.00" arrival="317.00" arrivalLane="51i_0" arrivalPos="10.00" arrivalSpeed="11.70" duration="123.00" routeLength="1015.10" waitingTime="21.00" waitingCount="1" stopTime="0.00" timeLoss="48.76" rerouteNo="0" devices="tripinfo_left_43" vType="typeWE" speedFactor="1.04" vaporized=""/>
    <tripinfo id="right_40" depart="183.00" departLane="51o_0" departPos="5.10" departSpeed="0.00" departDelay="7.00" arrival="318.00" arrivalLane="52i_0" arrivalPos="10.00" arrivalSpeed="11.71" duration="135.00" routeLength="1015.10" waitingTime="30.00" waitingCount="1" stopTime="0.00" timeLoss="59.80" rerouteNo="0" devices="tripinfo_right_40" vType="typeWE" speedFactor="1.03" vaporized=""/>
</tripinfos>
